
     Program PWSCF v.7.0 starts on 15Mar2022 at 17:58:51 

     This program is part of the open-source Quantum ESPRESSO suite
     for quantum simulation of materials; please cite
         "P. Giannozzi et al., J. Phys.:Condens. Matter 21 395502 (2009);
         "P. Giannozzi et al., J. Phys.:Condens. Matter 29 465901 (2017);
         "P. Giannozzi et al., J. Chem. Phys. 152 154105 (2020);
          URL http://www.quantum-espresso.org", 
     in publications or presentations arising from this work. More details at
     http://www.quantum-espresso.org/quote

     Parallel version (MPI), running on     1 processors

     MPI processes distributed on     1 nodes
     0 MiB available memory on the printing compute node when the environment starts

     Reading input from pt.test2.in

     Current dimensions of program PWSCF are:
     Max number of different atomic species (ntypx) = 10
     Max number of k-points (npk) =  40000
     Max angular momentum in pseudopotentials (lmaxx) =  4

     Subspace diagonalization in iterative solution of the eigenvalue problem:
     a serial algorithm will be used


     G-vector sticks info
     --------------------
     sticks:   dense  smooth     PW     G-vecs:    dense   smooth      PW
     Sum         361     361    121                 9085     9085    1665

     Using Slab Decomposition



     bravais-lattice index     =            4
     lattice parameter (alat)  =       8.1000  a.u.
     unit-cell volume          =     751.5742 (a.u.)^3
     number of atoms/cell      =            2
     number of atomic types    =            1
     number of electrons       =        32.00
     number of Kohn-Sham states=           20
     kinetic-energy cutoff     =      20.0000  Ry
     charge density cutoff     =      80.0000  Ry
     scf convergence threshold =      1.0E-06
     mixing beta               =       0.7000
     number of iterations used =            8  plain     mixing
     Exchange-correlation=  SLA  PW   PBX  PBC
                           (   1   4   3   4   0   0   0)

     celldm(1)=   8.100000  celldm(2)=   0.000000  celldm(3)=   1.633000
     celldm(4)=   0.000000  celldm(5)=   0.000000  celldm(6)=   0.000000

     crystal axes: (cart. coord. in units of alat)
               a(1) = (   1.000000   0.000000   0.000000 )  
               a(2) = (  -0.500000   0.866025   0.000000 )  
               a(3) = (   0.000000   0.000000   1.633000 )  

     reciprocal axes: (cart. coord. in units 2 pi/alat)
               b(1) = (  1.000000  0.577350 -0.000000 )  
               b(2) = (  0.000000  1.154701  0.000000 )  
               b(3) = (  0.000000 -0.000000  0.612370 )  


     PseudoPot. # 1 for Pt read from file:
     /Users/vinhtran/Documents/GitHub/DFT/Energy-Lattice-Constant/Platinum/pt_pbe_v1.4.uspp.F.UPF
     MD5 check sum: f09d6de1a584b5a045c4fc126da2d0c4
     Pseudo is Ultrasoft + core correction, Zval = 16.0
     Generated by new atomic code, or converted to UPF format
     Using radial grid of  985 points,  6 beta functions with: 
                l(1) =   0
                l(2) =   0
                l(3) =   1
                l(4) =   1
                l(5) =   2
                l(6) =   2
     Q(r) pseudized with  8 coefficients,  rinner =    1.300   1.300   1.300
                                                       1.300   1.300

     atomic species   valence    mass     pseudopotential
        Pt            16.00   195.08400     Pt( 1.00)

     24 Sym. Ops., with inversion, found (12 have fractional translation)



   Cartesian axes

     site n.     atom                  positions (alat units)
         1           Pt  tau(   1) = (   0.0000000   0.0000000   0.0000000  )
         2           Pt  tau(   2) = (   0.0000000   0.5773503   0.8165000  )

     number of k points=     6  Gaussian smearing, width (Ry)=  0.0800
                       cart. coord. in units 2pi/alat
        k(    1) = (   0.1250000   0.2165064   0.1530925), wk =   0.2500000
        k(    2) = (   0.1250000   0.5051815   0.1530925), wk =   0.5000000
        k(    3) = (   0.1250000  -0.3608439   0.1530925), wk =   0.5000000
        k(    4) = (   0.1250000  -0.0721688   0.1530925), wk =   0.2500000
        k(    5) = (   0.3750000   0.6495191   0.1530925), wk =   0.2500000
        k(    6) = (   0.3750000  -0.2165064   0.1530925), wk =   0.2500000

     Dense  grid:     9085 G-vectors     FFT dimensions: (  24,  24,  40)

     Estimated max dynamical RAM per process >      35.19 MB

     Check: negative core charge=   -0.000403

     Initial potential from superposition of free atoms

     starting charge      31.0000, renormalised to      32.0000

     negative rho (up, down):  3.834E-01 0.000E+00
     Starting wfcs are   24 randomized atomic wfcs

     total cpu time spent up to now is        0.5 secs

     Self-consistent Calculation

     iteration #  1     ecut=    20.00 Ry     beta= 0.70
     Davidson diagonalization with overlap
     ethr =  1.00E-02,  avg # of iterations =  2.0

     negative rho (up, down):  3.396E-01 0.000E+00

     total cpu time spent up to now is        0.7 secs

     total energy              =    -416.62768847 Ry
     estimated scf accuracy    <       5.88072347 Ry

     iteration #  2     ecut=    20.00 Ry     beta= 0.70
     Davidson diagonalization with overlap
     ethr =  1.00E-02,  avg # of iterations =  2.7

     negative rho (up, down):  3.844E-01 0.000E+00

     total cpu time spent up to now is        1.0 secs

     total energy              =    -419.53018958 Ry
     estimated scf accuracy    <       7.43893370 Ry

     iteration #  3     ecut=    20.00 Ry     beta= 0.70
     Davidson diagonalization with overlap
     ethr =  1.00E-02,  avg # of iterations =  2.0

     negative rho (up, down):  3.860E-01 0.000E+00

     total cpu time spent up to now is        1.3 secs

     total energy              =    -420.05547891 Ry
     estimated scf accuracy    <       0.51464102 Ry

     iteration #  4     ecut=    20.00 Ry     beta= 0.70
     Davidson diagonalization with overlap
     ethr =  1.61E-03,  avg # of iterations =  1.7

     negative rho (up, down):  3.839E-01 0.000E+00

     total cpu time spent up to now is        1.6 secs

     total energy              =    -420.07930359 Ry
     estimated scf accuracy    <       0.07570418 Ry

     iteration #  5     ecut=    20.00 Ry     beta= 0.70
     Davidson diagonalization with overlap
     ethr =  2.37E-04,  avg # of iterations =  1.3

     negative rho (up, down):  3.838E-01 0.000E+00

     total cpu time spent up to now is        1.8 secs

     total energy              =    -420.07007951 Ry
     estimated scf accuracy    <       0.03042306 Ry

     iteration #  6     ecut=    20.00 Ry     beta= 0.70
     Davidson diagonalization with overlap
     ethr =  9.51E-05,  avg # of iterations =  2.0

     negative rho (up, down):  3.837E-01 0.000E+00

     total cpu time spent up to now is        2.1 secs

     total energy              =    -420.07562838 Ry
     estimated scf accuracy    <       0.00002034 Ry

     iteration #  7     ecut=    20.00 Ry     beta= 0.70
     Davidson diagonalization with overlap
     ethr =  6.36E-08,  avg # of iterations =  6.7

     negative rho (up, down):  3.837E-01 0.000E+00

     total cpu time spent up to now is        2.4 secs

     total energy              =    -420.07568010 Ry
     estimated scf accuracy    <       0.00001986 Ry

     iteration #  8     ecut=    20.00 Ry     beta= 0.70
     Davidson diagonalization with overlap
     ethr =  6.21E-08,  avg # of iterations =  2.0

     negative rho (up, down):  3.838E-01 0.000E+00

     total cpu time spent up to now is        2.7 secs

     total energy              =    -420.07568700 Ry
     estimated scf accuracy    <       0.00000672 Ry

     iteration #  9     ecut=    20.00 Ry     beta= 0.70
     Davidson diagonalization with overlap
     ethr =  2.10E-08,  avg # of iterations =  1.0

     negative rho (up, down):  3.838E-01 0.000E+00

     total cpu time spent up to now is        3.0 secs

     total energy              =    -420.07568712 Ry
     estimated scf accuracy    <       0.00000108 Ry

     iteration # 10     ecut=    20.00 Ry     beta= 0.70
     Davidson diagonalization with overlap
     ethr =  3.39E-09,  avg # of iterations =  1.2

     negative rho (up, down):  3.838E-01 0.000E+00

     total cpu time spent up to now is        3.2 secs

     End of self-consistent calculation

          k = 0.1250 0.2165 0.1531 (  1132 PWs)   bands (ev):

   -49.9408 -49.9086 -49.8880 -49.8845 -49.8635 -49.8568  -0.0920   0.5289
     0.6517   0.6583   0.7100   0.7977   0.8059   0.8560   0.8680   0.9689
     1.0265   1.7542   5.7663   8.2470

          k = 0.1250 0.5052 0.1531 (  1139 PWs)   bands (ev):

   -49.9182 -49.9151 -49.8989 -49.8862 -49.8814 -49.8642   0.4033   0.5158
     0.6193   0.6323   0.7212   0.8861   0.9614   0.9835   1.0202   1.0567
     1.8522   2.5253   4.8093   5.7607

          k = 0.1250-0.3608 0.1531 (  1138 PWs)   bands (ev):

   -49.9171 -49.9075 -49.8997 -49.8903 -49.8824 -49.8721   0.3101   0.5505
     0.6111   0.6830   0.7459   0.7991   0.8357   0.9256   0.9620   1.0214
     1.1919   2.1593   5.7104   6.8730

          k = 0.1250-0.0722 0.1531 (  1133 PWs)   bands (ev):

   -49.9325 -49.9321 -49.9016 -49.8932 -49.8743 -49.8423  -0.3993   0.3353
     0.6749   0.7108   0.7260   0.7432   0.7790   0.8850   0.9142   0.9413
     0.9645   1.5045   5.4767   9.3757

          k = 0.3750 0.6495 0.1531 (  1137 PWs)   bands (ev):

   -49.9091 -49.9032 -49.8884 -49.8836 -49.8795 -49.8713   0.5076   0.5993
     0.6112   0.7058   0.7620   0.8567   0.8874   0.9549   1.0104   1.0454
     2.2493   2.5012   5.1896   5.9116

          k = 0.3750-0.2165 0.1531 (  1140 PWs)   bands (ev):

   -49.9212 -49.9098 -49.9067 -49.8935 -49.8894 -49.8577   0.3084   0.4681
     0.6121   0.6460   0.7595   0.8267   0.9676   1.0031   1.0101   1.0683
     1.3463   2.3487   5.0660   6.3306

     the Fermi energy is     1.7884 ev

!    total energy              =    -420.07568707 Ry
     estimated scf accuracy    <       0.00000016 Ry
     smearing contrib. (-TS)   =      -0.25871833 Ry
     internal energy E=F+TS    =    -419.81696874 Ry

     The total energy is F=E-TS. E is the sum of the following terms:
     one-electron contribution =    -217.23130898 Ry
     hartree contribution      =     114.96875773 Ry
     xc contribution           =    -112.63722028 Ry
     ewald contribution        =    -204.91719720 Ry

     convergence has been achieved in  10 iterations

     Writing all to output data dir /Users/vinhtran/Documents/GitHub/DFT/Energy-Lattice-Constant/Platinum/pt.save/

     init_run     :      0.37s CPU      0.38s WALL (       1 calls)
     electrons    :      2.65s CPU      2.75s WALL (       1 calls)

     Called by init_run:
     wfcinit      :      0.07s CPU      0.07s WALL (       1 calls)
     potinit      :      0.02s CPU      0.02s WALL (       1 calls)
     hinit0       :      0.26s CPU      0.26s WALL (       1 calls)

     Called by electrons:
     c_bands      :      1.76s CPU      1.81s WALL (      10 calls)
     sum_band     :      0.61s CPU      0.63s WALL (      10 calls)
     v_of_rho     :      0.09s CPU      0.09s WALL (      11 calls)
     newd         :      0.21s CPU      0.23s WALL (      11 calls)
     mix_rho      :      0.01s CPU      0.01s WALL (      10 calls)

     Called by c_bands:
     init_us_2    :      0.05s CPU      0.05s WALL (     126 calls)
     init_us_2:cp :      0.05s CPU      0.05s WALL (     126 calls)
     cegterg      :      1.42s CPU      1.47s WALL (      60 calls)

     Called by *egterg:
     cdiaghg      :      0.06s CPU      0.06s WALL (     195 calls)
     h_psi        :      1.25s CPU      1.28s WALL (     201 calls)
     s_psi        :      0.02s CPU      0.02s WALL (     201 calls)
     g_psi        :      0.02s CPU      0.02s WALL (     135 calls)

     Called by h_psi:
     h_psi:calbec :      0.03s CPU      0.04s WALL (     201 calls)
     vloc_psi     :      1.20s CPU      1.21s WALL (     201 calls)
     add_vuspsi   :      0.02s CPU      0.03s WALL (     201 calls)

     General routines
     calbec       :      0.04s CPU      0.05s WALL (     261 calls)
     fft          :      0.02s CPU      0.02s WALL (     121 calls)
     ffts         :      0.00s CPU      0.00s WALL (      10 calls)
     fftw         :      0.76s CPU      0.77s WALL (    7444 calls)

     Parallel routines

     PWSCF        :      3.10s CPU      3.21s WALL


   This run was terminated on:  17:58:54  15Mar2022            

=------------------------------------------------------------------------------=
   JOB DONE.
=------------------------------------------------------------------------------=
