
     Program PWSCF v.7.0 starts on 18Mar2022 at 12:11:36 

     This program is part of the open-source Quantum ESPRESSO suite
     for quantum simulation of materials; please cite
         "P. Giannozzi et al., J. Phys.:Condens. Matter 21 395502 (2009);
         "P. Giannozzi et al., J. Phys.:Condens. Matter 29 465901 (2017);
         "P. Giannozzi et al., J. Chem. Phys. 152 154105 (2020);
          URL http://www.quantum-espresso.org", 
     in publications or presentations arising from this work. More details at
     http://www.quantum-espresso.org/quote

     Parallel version (MPI), running on     1 processors

     MPI processes distributed on     1 nodes
     0 MiB available memory on the printing compute node when the environment starts

     Reading input from si.nscf.in

     Current dimensions of program PWSCF are:
     Max number of different atomic species (ntypx) = 10
     Max number of k-points (npk) =  40000
     Max angular momentum in pseudopotentials (lmaxx) =  4

     Atomic positions and unit cell read from directory:
     /Users/vinhtran/Documents/GitHub/DFT/Basic-Electronic-Structure/Band_Structure/temp/silicon.save/


     Subspace diagonalization in iterative solution of the eigenvalue problem:
     a serial algorithm will be used


     G-vector sticks info
     --------------------
     sticks:   dense  smooth     PW     G-vecs:    dense   smooth      PW
     Sum         439     439    151                 6183     6183    1139

     Using Slab Decomposition



     bravais-lattice index     =            2
     lattice parameter (alat)  =      10.3574  a.u.
     unit-cell volume          =     277.7773 (a.u.)^3
     number of atoms/cell      =            2
     number of atomic types    =            1
     number of electrons       =         8.00
     number of Kohn-Sham states=            8
     kinetic-energy cutoff     =      30.0000  Ry
     charge density cutoff     =     120.0000  Ry
     Exchange-correlation= PBE
                           (   1   4   3   4   0   0   0)

     celldm(1)=  10.357435  celldm(2)=   0.000000  celldm(3)=   0.000000
     celldm(4)=   0.000000  celldm(5)=   0.000000  celldm(6)=   0.000000

     crystal axes: (cart. coord. in units of alat)
               a(1) = (  -0.500000   0.000000   0.500000 )  
               a(2) = (   0.000000   0.500000   0.500000 )  
               a(3) = (  -0.500000   0.500000   0.000000 )  

     reciprocal axes: (cart. coord. in units 2 pi/alat)
               b(1) = ( -1.000000 -1.000000  1.000000 )  
               b(2) = (  1.000000  1.000000  1.000000 )  
               b(3) = ( -1.000000  1.000000 -1.000000 )  


     PseudoPot. # 1 for Si read from file:
     /Users/vinhtran/Documents/GitHub/DFT/pseudos/Si.pbe-n-rrkjus_psl.1.0.0.UPF
     MD5 check sum: 0b0bb1205258b0d07b9f9672cf965d36
     Pseudo is Ultrasoft + core correction, Zval =  4.0
     Generated using "atomic" code by A. Dal Corso  v.5.1
     Using radial grid of 1141 points,  6 beta functions with: 
                l(1) =   0
                l(2) =   0
                l(3) =   1
                l(4) =   1
                l(5) =   2
                l(6) =   2
     Q(r) pseudized with 0 coefficients 


     atomic species   valence    mass     pseudopotential
        Si             4.00    28.08600     Si( 1.00)

     48 Sym. Ops., with inversion, found (24 have fractional translation)



   Cartesian axes

     site n.     atom                  positions (alat units)
         1           Si  tau(   1) = (   0.0000000   0.0000000   0.0000000  )
         2           Si  tau(   2) = (   0.2500000   0.2500000   0.2500000  )

     number of k points=    29 (tetrahedron method)
                       cart. coord. in units 2pi/alat
        k(    1) = (   0.0000000   0.0000000   0.0000000), wk =   0.0039062
        k(    2) = (  -0.1250000   0.1250000  -0.1250000), wk =   0.0312500
        k(    3) = (  -0.2500000   0.2500000  -0.2500000), wk =   0.0312500
        k(    4) = (  -0.3750000   0.3750000  -0.3750000), wk =   0.0312500
        k(    5) = (   0.5000000  -0.5000000   0.5000000), wk =   0.0156250
        k(    6) = (   0.0000000   0.2500000   0.0000000), wk =   0.0234375
        k(    7) = (  -0.1250000   0.3750000  -0.1250000), wk =   0.0937500
        k(    8) = (  -0.2500000   0.5000000  -0.2500000), wk =   0.0937500
        k(    9) = (   0.6250000  -0.3750000   0.6250000), wk =   0.0937500
        k(   10) = (   0.5000000  -0.2500000   0.5000000), wk =   0.0937500
        k(   11) = (   0.3750000  -0.1250000   0.3750000), wk =   0.0937500
        k(   12) = (   0.2500000   0.0000000   0.2500000), wk =   0.0468750
        k(   13) = (   0.0000000   0.5000000   0.0000000), wk =   0.0234375
        k(   14) = (  -0.1250000   0.6250000  -0.1250000), wk =   0.0937500
        k(   15) = (   0.7500000  -0.2500000   0.7500000), wk =   0.0937500
        k(   16) = (   0.6250000  -0.1250000   0.6250000), wk =   0.0937500
        k(   17) = (   0.5000000   0.0000000   0.5000000), wk =   0.0468750
        k(   18) = (   0.0000000   0.7500000   0.0000000), wk =   0.0234375
        k(   19) = (   0.8750000  -0.1250000   0.8750000), wk =   0.0937500
        k(   20) = (   0.7500000   0.0000000   0.7500000), wk =   0.0468750
        k(   21) = (   0.0000000  -1.0000000   0.0000000), wk =   0.0117188
        k(   22) = (  -0.2500000   0.5000000   0.0000000), wk =   0.0937500
        k(   23) = (   0.6250000  -0.3750000   0.8750000), wk =   0.1875000
        k(   24) = (   0.5000000  -0.2500000   0.7500000), wk =   0.0937500
        k(   25) = (   0.7500000  -0.2500000   1.0000000), wk =   0.0937500
        k(   26) = (   0.6250000  -0.1250000   0.8750000), wk =   0.1875000
        k(   27) = (   0.5000000   0.0000000   0.7500000), wk =   0.0937500
        k(   28) = (  -0.2500000  -1.0000000   0.0000000), wk =   0.0468750
        k(   29) = (  -0.5000000  -1.0000000   0.0000000), wk =   0.0234375

     Dense  grid:     6183 G-vectors     FFT dimensions: (  32,  32,  32)

     Estimated max dynamical RAM per process >      22.10 MB

     Check: negative core charge=   -0.000004

     The potential is recalculated from file :
     /Users/vinhtran/Documents/GitHub/DFT/Basic-Electronic-Structure/Band_Structure/temp/silicon.save/charge-density

     Starting wfcs are    8 randomized atomic wfcs

     Band Structure Calculation
     Davidson diagonalization with overlap

     ethr =  1.25E-10,  avg # of iterations = 33.3

     total cpu time spent up to now is        3.9 secs

     End of band structure calculation

          k = 0.0000 0.0000 0.0000 (   749 PWs)   bands (ev):

    -5.8213   5.9608   5.9608   5.9608   8.4942   8.4942   8.4942   9.0097

          k =-0.1250 0.1250-0.1250 (   773 PWs)   bands (ev):

    -5.6219   4.3650   5.6775   5.6775   8.3685   8.9093   8.9093  10.4298

          k =-0.2500 0.2500-0.2500 (   778 PWs)   bands (ev):

    -5.0408   2.0756   5.2144   5.2144   7.8852   9.4279   9.4279  12.6523

          k =-0.3750 0.3750-0.3750 (   769 PWs)   bands (ev):

    -4.1715   0.0998   4.8917   4.8917   7.5219   9.3954   9.3954  13.7752

          k = 0.5000-0.5000 0.5000 (   778 PWs)   bands (ev):

    -3.5568  -0.8925   4.7810   4.7810   7.3942   9.2936   9.2936  13.6471

          k = 0.0000 0.2500 0.0000 (   769 PWs)   bands (ev):

    -5.5547   4.5989   5.1736   5.1736   7.9587   9.6081   9.6081  10.1127

          k =-0.1250 0.3750-0.1250 (   781 PWs)   bands (ev):

    -5.0972   2.7515   4.6717   4.7331   8.0900   9.5437  10.3625  10.6836

          k =-0.2500 0.5000-0.2500 (   783 PWs)   bands (ev):

    -4.3032   0.7384   4.1506   4.4070   8.1695   9.5230  10.3802  11.3816

          k = 0.6250-0.3750 0.6250 (   773 PWs)   bands (ev):

    -3.4699  -0.6842   3.7150   4.4287   8.1004   9.4287  10.0350  13.2350

          k = 0.5000-0.2500 0.5000 (   768 PWs)   bands (ev):

    -3.7054  -0.3252   3.5410   4.7172   8.2445   9.5525   9.8046  13.7508

          k = 0.3750-0.1250 0.3750 (   776 PWs)   bands (ev):

    -4.6015   1.3816   3.6959   5.1978   8.5822   9.5972   9.7806  12.1346

          k = 0.2500 0.0000 0.2500 (   775 PWs)   bands (ev):

    -5.2937   3.2811   4.3728   5.6696   8.8876   9.0445   9.2760  11.3425

          k = 0.0000 0.5000 0.0000 (   769 PWs)   bands (ev):

    -4.7646   2.4354   4.1133   4.1133   7.1026   9.0812  11.6198  11.6198

          k =-0.1250 0.6250-0.1250 (   775 PWs)   bands (ev):

    -4.0719   1.0445   3.3499   3.8008   7.3230   8.8518  11.8331  12.1377

          k = 0.7500-0.2500 0.7500 (   768 PWs)   bands (ev):

    -3.1725  -0.3559   2.5053   3.8026   7.4938  10.3782  11.5670  11.8110

          k = 0.6250-0.1250 0.6250 (   769 PWs)   bands (ev):

    -2.9770  -0.6040   2.0603   4.1129   7.8043  11.3394  11.3751  12.8104

          k = 0.5000 0.0000 0.5000 (   784 PWs)   bands (ev):

    -3.8286   0.5238   2.3010   4.6576   8.3778  10.6773  11.0301  11.9548

          k = 0.0000 0.7500 0.0000 (   765 PWs)   bands (ev):

    -3.4830   0.2499   3.4109   3.4109   6.6069   7.5321  13.8565  13.8565

          k = 0.8750-0.1250 0.8750 (   763 PWs)   bands (ev):

    -2.6085  -0.8118   2.6103   3.3358   6.8877   7.9382  14.0937  14.1426

          k = 0.7500 0.0000 0.7500 (   762 PWs)   bands (ev):

    -2.1888  -1.1944   1.7733   3.5872   7.1888  10.0585  13.2956  13.8473

          k = 0.0000-1.0000 0.0000 (   774 PWs)   bands (ev):

    -1.7745  -1.7745   3.1700   3.1700   6.7100   6.7100  15.8202  15.8202

          k =-0.2500 0.5000 0.0000 (   776 PWs)   bands (ev):

    -4.5237   1.6902   3.3133   4.5599   8.3891   9.7466  10.1570  11.3741

          k = 0.6250-0.3750 0.8750 (   770 PWs)   bands (ev):

    -3.6593   0.1781   2.7103   4.0746   8.8077   9.4702  10.9132  11.8132

          k = 0.5000-0.2500 0.7500 (   764 PWs)   bands (ev):

    -3.0295  -0.7355   2.5786   3.8526   8.9574   9.0994  11.7759  13.0086

          k = 0.7500-0.2500 1.0000 (   763 PWs)   bands (ev):

    -3.2909   0.0356   2.6801   3.2698   7.9065   8.6100  11.6137  13.8088

          k = 0.6250-0.1250 0.8750 (   762 PWs)   bands (ev):

    -2.4427  -0.9081   2.0039   3.0748   8.3452  10.2182  11.1399  13.2728

          k = 0.5000 0.0000 0.7500 (   769 PWs)   bands (ev):

    -2.7845  -0.5518   1.8425   3.4397   8.8114  10.4569  11.0996  12.8938

          k =-0.2500-1.0000 0.0000 (   760 PWs)   bands (ev):

    -1.7016  -1.7016   2.6292   2.6292   7.9387   7.9387  13.6718  13.6718

          k =-0.5000-1.0000 0.0000 (   772 PWs)   bands (ev):

    -1.6218  -1.6218   2.2105   2.2105  10.2270  10.2270  10.8523  10.8523

     the Fermi energy is     6.3520 ev
     (compare with:     5.9608 eV, computed in scf)

     Writing all to output data dir /Users/vinhtran/Documents/GitHub/DFT/Basic-Electronic-Structure/Band_Structure/temp/silicon.save/

     init_run     :      0.35s CPU      0.36s WALL (       1 calls)
     electrons    :      3.31s CPU      3.40s WALL (       1 calls)

     Called by init_run:
     wfcinit      :      0.00s CPU      0.00s WALL (       1 calls)
     potinit      :      0.01s CPU      0.01s WALL (       1 calls)
     hinit0       :      0.32s CPU      0.32s WALL (       1 calls)

     Called by electrons:
     c_bands      :      3.30s CPU      3.39s WALL (       1 calls)
     v_of_rho     :      0.01s CPU      0.01s WALL (       1 calls)
     newd         :      0.01s CPU      0.02s WALL (       1 calls)

     Called by c_bands:
     init_us_2    :      0.01s CPU      0.01s WALL (      29 calls)
     init_us_2:cp :      0.01s CPU      0.01s WALL (      29 calls)
     cegterg      :      3.06s CPU      3.15s WALL (      64 calls)

     Called by *egterg:
     cdiaghg      :      0.05s CPU      0.06s WALL (     996 calls)
     h_psi        :      2.80s CPU      2.85s WALL (    1060 calls)
     s_psi        :      0.04s CPU      0.05s WALL (    1060 calls)
     g_psi        :      0.03s CPU      0.03s WALL (     967 calls)

     Called by h_psi:
     h_psi:calbec :      0.05s CPU      0.07s WALL (    1060 calls)
     vloc_psi     :      2.70s CPU      2.71s WALL (    1060 calls)
     add_vuspsi   :      0.04s CPU      0.06s WALL (    1060 calls)

     General routines
     calbec       :      0.05s CPU      0.07s WALL (    1060 calls)
     fft          :      0.01s CPU      0.01s WALL (      12 calls)
     fftw         :      1.34s CPU      1.34s WALL (   11486 calls)
     davcio       :      0.00s CPU      0.00s WALL (      58 calls)

     Parallel routines

     PWSCF        :      3.80s CPU      3.91s WALL


   This run was terminated on:  12:11:40  18Mar2022            

=------------------------------------------------------------------------------=
   JOB DONE.
=------------------------------------------------------------------------------=
