
     Program PWSCF v.7.0 starts on 18Mar2022 at 12:11:19 

     This program is part of the open-source Quantum ESPRESSO suite
     for quantum simulation of materials; please cite
         "P. Giannozzi et al., J. Phys.:Condens. Matter 21 395502 (2009);
         "P. Giannozzi et al., J. Phys.:Condens. Matter 29 465901 (2017);
         "P. Giannozzi et al., J. Chem. Phys. 152 154105 (2020);
          URL http://www.quantum-espresso.org", 
     in publications or presentations arising from this work. More details at
     http://www.quantum-espresso.org/quote

     Parallel version (MPI), running on     1 processors

     MPI processes distributed on     1 nodes
     0 MiB available memory on the printing compute node when the environment starts

     Reading input from si.scf.in

     Current dimensions of program PWSCF are:
     Max number of different atomic species (ntypx) = 10
     Max number of k-points (npk) =  40000
     Max angular momentum in pseudopotentials (lmaxx) =  4

     Subspace diagonalization in iterative solution of the eigenvalue problem:
     a serial algorithm will be used


     G-vector sticks info
     --------------------
     sticks:   dense  smooth     PW     G-vecs:    dense   smooth      PW
     Sum         439     439    139                 6183     6183    1067

     Using Slab Decomposition



     bravais-lattice index     =            2
     lattice parameter (alat)  =      10.3574  a.u.
     unit-cell volume          =     277.7773 (a.u.)^3
     number of atoms/cell      =            2
     number of atomic types    =            1
     number of electrons       =         8.00
     number of Kohn-Sham states=            4
     kinetic-energy cutoff     =      30.0000  Ry
     charge density cutoff     =     120.0000  Ry
     scf convergence threshold =      1.0E-08
     mixing beta               =       0.7000
     number of iterations used =            8  plain     mixing
     Exchange-correlation= PBE
                           (   1   4   3   4   0   0   0)

     celldm(1)=  10.357435  celldm(2)=   0.000000  celldm(3)=   0.000000
     celldm(4)=   0.000000  celldm(5)=   0.000000  celldm(6)=   0.000000

     crystal axes: (cart. coord. in units of alat)
               a(1) = (  -0.500000   0.000000   0.500000 )  
               a(2) = (   0.000000   0.500000   0.500000 )  
               a(3) = (  -0.500000   0.500000   0.000000 )  

     reciprocal axes: (cart. coord. in units 2 pi/alat)
               b(1) = ( -1.000000 -1.000000  1.000000 )  
               b(2) = (  1.000000  1.000000  1.000000 )  
               b(3) = ( -1.000000  1.000000 -1.000000 )  


     PseudoPot. # 1 for Si read from file:
     /Users/vinhtran/Documents/GitHub/DFT/pseudos/Si.pbe-n-rrkjus_psl.1.0.0.UPF
     MD5 check sum: 0b0bb1205258b0d07b9f9672cf965d36
     Pseudo is Ultrasoft + core correction, Zval =  4.0
     Generated using "atomic" code by A. Dal Corso  v.5.1
     Using radial grid of 1141 points,  6 beta functions with: 
                l(1) =   0
                l(2) =   0
                l(3) =   1
                l(4) =   1
                l(5) =   2
                l(6) =   2
     Q(r) pseudized with 0 coefficients 


     atomic species   valence    mass     pseudopotential
        Si             4.00    28.08600     Si( 1.00)

     48 Sym. Ops., with inversion, found (24 have fractional translation)



   Cartesian axes

     site n.     atom                  positions (alat units)
         1           Si  tau(   1) = (   0.0000000   0.0000000   0.0000000  )
         2           Si  tau(   2) = (   0.2500000   0.2500000   0.2500000  )

     number of k points=     8
                       cart. coord. in units 2pi/alat
        k(    1) = (   0.0000000   0.0000000   0.0000000), wk =   0.0312500
        k(    2) = (  -0.2500000   0.2500000  -0.2500000), wk =   0.2500000
        k(    3) = (   0.5000000  -0.5000000   0.5000000), wk =   0.1250000
        k(    4) = (   0.0000000   0.5000000   0.0000000), wk =   0.1875000
        k(    5) = (   0.7500000  -0.2500000   0.7500000), wk =   0.7500000
        k(    6) = (   0.5000000   0.0000000   0.5000000), wk =   0.3750000
        k(    7) = (   0.0000000  -1.0000000   0.0000000), wk =   0.0937500
        k(    8) = (  -0.5000000  -1.0000000   0.0000000), wk =   0.1875000

     Dense  grid:     6183 G-vectors     FFT dimensions: (  32,  32,  32)

     Estimated max dynamical RAM per process >      24.29 MB

     Check: negative core charge=   -0.000004

     Initial potential from superposition of free atoms

     starting charge       7.9989, renormalised to       8.0000
     Starting wfcs are    8 randomized atomic wfcs

     total cpu time spent up to now is        0.5 secs

     Self-consistent Calculation

     iteration #  1     ecut=    30.00 Ry     beta= 0.70
     Davidson diagonalization with overlap
     ethr =  1.00E-02,  avg # of iterations =  2.0

     Threshold (ethr) on eigenvalues was too large:
     Diagonalizing with lowered threshold

     Davidson diagonalization with overlap
     ethr =  6.53E-04,  avg # of iterations =  1.6

     total cpu time spent up to now is        0.7 secs

     total energy              =     -22.82406752 Ry
     estimated scf accuracy    <       0.05700661 Ry

     iteration #  2     ecut=    30.00 Ry     beta= 0.70
     Davidson diagonalization with overlap
     ethr =  7.13E-04,  avg # of iterations =  1.0

     total cpu time spent up to now is        0.8 secs

     total energy              =     -22.82574169 Ry
     estimated scf accuracy    <       0.00314990 Ry

     iteration #  3     ecut=    30.00 Ry     beta= 0.70
     Davidson diagonalization with overlap
     ethr =  3.94E-05,  avg # of iterations =  2.6

     total cpu time spent up to now is        1.0 secs

     total energy              =     -22.82639916 Ry
     estimated scf accuracy    <       0.00009541 Ry

     iteration #  4     ecut=    30.00 Ry     beta= 0.70
     Davidson diagonalization with overlap
     ethr =  1.19E-06,  avg # of iterations =  3.9

     total cpu time spent up to now is        1.1 secs

     total energy              =     -22.82646264 Ry
     estimated scf accuracy    <       0.00000784 Ry

     iteration #  5     ecut=    30.00 Ry     beta= 0.70
     Davidson diagonalization with overlap
     ethr =  9.80E-08,  avg # of iterations =  3.5

     total cpu time spent up to now is        1.3 secs

     total energy              =     -22.82646740 Ry
     estimated scf accuracy    <       0.00000055 Ry

     iteration #  6     ecut=    30.00 Ry     beta= 0.70
     Davidson diagonalization with overlap
     ethr =  6.82E-09,  avg # of iterations =  4.0

     total cpu time spent up to now is        1.4 secs

     total energy              =     -22.82646764 Ry
     estimated scf accuracy    <       0.00000028 Ry

     iteration #  7     ecut=    30.00 Ry     beta= 0.70
     Davidson diagonalization with overlap
     ethr =  3.51E-09,  avg # of iterations =  2.4

     total cpu time spent up to now is        1.6 secs

     End of self-consistent calculation

          k = 0.0000 0.0000 0.0000 (   749 PWs)   bands (ev):

    -5.8213   5.9608   5.9608   5.9608

          k =-0.2500 0.2500-0.2500 (   778 PWs)   bands (ev):

    -5.0407   2.0757   5.2145   5.2145

          k = 0.5000-0.5000 0.5000 (   778 PWs)   bands (ev):

    -3.5567  -0.8924   4.7811   4.7811

          k = 0.0000 0.5000 0.0000 (   769 PWs)   bands (ev):

    -4.7645   2.4355   4.1134   4.1134

          k = 0.7500-0.2500 0.7500 (   768 PWs)   bands (ev):

    -3.1724  -0.3558   2.5054   3.8027

          k = 0.5000 0.0000 0.5000 (   784 PWs)   bands (ev):

    -3.8285   0.5239   2.3010   4.6577

          k = 0.0000-1.0000 0.0000 (   774 PWs)   bands (ev):

    -1.7744  -1.7744   3.1701   3.1701

          k =-0.5000-1.0000 0.0000 (   772 PWs)   bands (ev):

    -1.6217  -1.6217   2.2105   2.2105

     highest occupied level (ev):     5.9608

!    total energy              =     -22.82646767 Ry
     estimated scf accuracy    <          5.5E-10 Ry

     The total energy is the sum of the following terms:
     one-electron contribution =       4.95458956 Ry
     hartree contribution      =       1.14878796 Ry
     xc contribution           =     -12.28696648 Ry
     ewald contribution        =     -16.64287872 Ry

     convergence has been achieved in   7 iterations

     Writing all to output data dir /Users/vinhtran/Documents/GitHub/DFT/Basic-Electronic-Structure/Band_Structure/temp/silicon.save/

     init_run     :      0.40s CPU      0.40s WALL (       1 calls)
     electrons    :      1.07s CPU      1.11s WALL (       1 calls)

     Called by init_run:
     wfcinit      :      0.04s CPU      0.04s WALL (       1 calls)
     potinit      :      0.02s CPU      0.02s WALL (       1 calls)
     hinit0       :      0.32s CPU      0.33s WALL (       1 calls)

     Called by electrons:
     c_bands      :      0.66s CPU      0.67s WALL (       8 calls)
     sum_band     :      0.24s CPU      0.25s WALL (       8 calls)
     v_of_rho     :      0.09s CPU      0.10s WALL (       8 calls)
     newd         :      0.10s CPU      0.11s WALL (       8 calls)
     mix_rho      :      0.01s CPU      0.01s WALL (       8 calls)

     Called by c_bands:
     init_us_2    :      0.04s CPU      0.04s WALL (     136 calls)
     init_us_2:cp :      0.04s CPU      0.04s WALL (     136 calls)
     cegterg      :      0.42s CPU      0.43s WALL (      64 calls)

     Called by *egterg:
     cdiaghg      :      0.00s CPU      0.00s WALL (     224 calls)
     h_psi        :      0.40s CPU      0.41s WALL (     240 calls)
     s_psi        :      0.01s CPU      0.01s WALL (     240 calls)
     g_psi        :      0.00s CPU      0.00s WALL (     168 calls)

     Called by h_psi:
     h_psi:calbec :      0.01s CPU      0.02s WALL (     240 calls)
     vloc_psi     :      0.38s CPU      0.39s WALL (     240 calls)
     add_vuspsi   :      0.01s CPU      0.01s WALL (     240 calls)

     General routines
     calbec       :      0.01s CPU      0.02s WALL (     304 calls)
     fft          :      0.03s CPU      0.03s WALL (      89 calls)
     ffts         :      0.00s CPU      0.00s WALL (       8 calls)
     fftw         :      0.21s CPU      0.21s WALL (    1902 calls)

     Parallel routines

     PWSCF        :      1.54s CPU      1.59s WALL


   This run was terminated on:  12:11:21  18Mar2022            

=------------------------------------------------------------------------------=
   JOB DONE.
=------------------------------------------------------------------------------=
