
     Program PWSCF v.7.0 starts on 15Mar2022 at 19: 6:45 

     This program is part of the open-source Quantum ESPRESSO suite
     for quantum simulation of materials; please cite
         "P. Giannozzi et al., J. Phys.:Condens. Matter 21 395502 (2009);
         "P. Giannozzi et al., J. Phys.:Condens. Matter 29 465901 (2017);
         "P. Giannozzi et al., J. Chem. Phys. 152 154105 (2020);
          URL http://www.quantum-espresso.org", 
     in publications or presentations arising from this work. More details at
     http://www.quantum-espresso.org/quote

     Parallel version (MPI), running on     1 processors

     MPI processes distributed on     1 nodes
     0 MiB available memory on the printing compute node when the environment starts

     Reading input from Pt.scf.in
     Message from routine read_cards :
     DEPRECATED: no units specified in ATOMIC_POSITIONS card
     Message from routine read_cards :
     ATOMIC_POSITIONS: units set to alat

     Current dimensions of program PWSCF are:
     Max number of different atomic species (ntypx) = 10
     Max number of k-points (npk) =  40000
     Max angular momentum in pseudopotentials (lmaxx) =  4

     Subspace diagonalization in iterative solution of the eigenvalue problem:
     a serial algorithm will be used


     G-vector sticks info
     --------------------
     sticks:   dense  smooth     PW     G-vecs:    dense   smooth      PW
     Sum          55      55     31                  283      283      89

     Using Slab Decomposition



     bravais-lattice index     =            2
     lattice parameter (alat)  =       4.5000  a.u.
     unit-cell volume          =      22.7812 (a.u.)^3
     number of atoms/cell      =            1
     number of atomic types    =            1
     number of electrons       =        16.00
     number of Kohn-Sham states=           12
     kinetic-energy cutoff     =      20.0000  Ry
     charge density cutoff     =      80.0000  Ry
     scf convergence threshold =      1.0E-06
     mixing beta               =       0.7000
     number of iterations used =            8  plain     mixing
     Exchange-correlation=  SLA  PW   PBX  PBC
                           (   1   4   3   4   0   0   0)

     celldm(1)=   4.500000  celldm(2)=   0.000000  celldm(3)=   0.000000
     celldm(4)=   0.000000  celldm(5)=   0.000000  celldm(6)=   0.000000

     crystal axes: (cart. coord. in units of alat)
               a(1) = (  -0.500000   0.000000   0.500000 )  
               a(2) = (   0.000000   0.500000   0.500000 )  
               a(3) = (  -0.500000   0.500000   0.000000 )  

     reciprocal axes: (cart. coord. in units 2 pi/alat)
               b(1) = ( -1.000000 -1.000000  1.000000 )  
               b(2) = (  1.000000  1.000000  1.000000 )  
               b(3) = ( -1.000000  1.000000 -1.000000 )  


     PseudoPot. # 1 for Pt read from file:
     /Users/vinhtran/Documents/GitHub/DFT/Energy-Lattice-Constant/Platinum/pt_pbe_v1.4.uspp.F.UPF
     MD5 check sum: f09d6de1a584b5a045c4fc126da2d0c4
     Pseudo is Ultrasoft + core correction, Zval = 16.0
     Generated by new atomic code, or converted to UPF format
     Using radial grid of  985 points,  6 beta functions with: 
                l(1) =   0
                l(2) =   0
                l(3) =   1
                l(4) =   1
                l(5) =   2
                l(6) =   2
     Q(r) pseudized with  8 coefficients,  rinner =    1.300   1.300   1.300
                                                       1.300   1.300

     atomic species   valence    mass     pseudopotential
        pt            16.00   195.08400     Pt( 1.00)

     48 Sym. Ops., with inversion, found



   Cartesian axes

     site n.     atom                  positions (alat units)
         1           pt  tau(   1) = (   0.0000000   0.0000000   0.0000000  )

     number of k points=    16  Methfessel-Paxton smearing, width (Ry)=  0.0600
                       cart. coord. in units 2pi/alat
        k(    1) = (   0.0000000   0.0000000   0.0000000), wk =   0.0092593
        k(    2) = (  -0.1666667   0.1666667  -0.1666667), wk =   0.0740741
        k(    3) = (  -0.3333333   0.3333333  -0.3333333), wk =   0.0740741
        k(    4) = (   0.5000000  -0.5000000   0.5000000), wk =   0.0370370
        k(    5) = (   0.0000000   0.3333333   0.0000000), wk =   0.0555556
        k(    6) = (  -0.1666667   0.5000000  -0.1666667), wk =   0.2222222
        k(    7) = (   0.6666667  -0.3333333   0.6666667), wk =   0.2222222
        k(    8) = (   0.5000000  -0.1666667   0.5000000), wk =   0.2222222
        k(    9) = (   0.3333333   0.0000000   0.3333333), wk =   0.1111111
        k(   10) = (   0.0000000   0.6666667   0.0000000), wk =   0.0555556
        k(   11) = (   0.8333333  -0.1666667   0.8333333), wk =   0.2222222
        k(   12) = (   0.6666667  -0.0000000   0.6666667), wk =   0.1111111
        k(   13) = (   0.0000000  -1.0000000   0.0000000), wk =   0.0277778
        k(   14) = (   0.6666667  -0.3333333   1.0000000), wk =   0.2222222
        k(   15) = (   0.5000000  -0.1666667   0.8333333), wk =   0.2222222
        k(   16) = (  -0.3333333  -1.0000000   0.0000000), wk =   0.1111111

     Dense  grid:      283 G-vectors     FFT dimensions: (   9,   9,   9)

     Estimated max dynamical RAM per process >       1.81 MB

     Initial potential from superposition of free atoms

     starting charge      15.5000, renormalised to      16.0000

     negative rho (up, down):  1.764E-01 0.000E+00
     Starting wfcs are   12 randomized atomic wfcs

     total cpu time spent up to now is        0.4 secs

     Self-consistent Calculation

     iteration #  1     ecut=    20.00 Ry     beta= 0.70
     Davidson diagonalization with overlap
     ethr =  1.00E-02,  avg # of iterations =  3.3

     Threshold (ethr) on eigenvalues was too large:
     Diagonalizing with lowered threshold

     Davidson diagonalization with overlap
     ethr =  1.34E-04,  avg # of iterations =  2.2

     negative rho (up, down):  2.401E-01 0.000E+00

     total cpu time spent up to now is        0.4 secs

     total energy              =    -199.82213265 Ry
     estimated scf accuracy    <       0.02128020 Ry

     iteration #  2     ecut=    20.00 Ry     beta= 0.70
     Davidson diagonalization with overlap
     ethr =  1.33E-04,  avg # of iterations =  1.1

     negative rho (up, down):  2.612E-01 0.000E+00

     total cpu time spent up to now is        0.4 secs

     total energy              =    -199.82263283 Ry
     estimated scf accuracy    <       0.00113405 Ry

     iteration #  3     ecut=    20.00 Ry     beta= 0.70
     Davidson diagonalization with overlap
     ethr =  7.09E-06,  avg # of iterations =  1.4

     negative rho (up, down):  2.642E-01 0.000E+00

     total cpu time spent up to now is        0.4 secs

     total energy              =    -199.82265544 Ry
     estimated scf accuracy    <       0.00001918 Ry

     iteration #  4     ecut=    20.00 Ry     beta= 0.70
     Davidson diagonalization with overlap
     ethr =  1.20E-07,  avg # of iterations =  1.3

     negative rho (up, down):  2.643E-01 0.000E+00

     total cpu time spent up to now is        0.5 secs

     End of self-consistent calculation

          k = 0.0000 0.0000 0.0000 (    27 PWs)   bands (ev):

    58.8299  58.8299  58.8299  90.2007  90.2007  90.2007 104.5039 108.2968
   108.2968 110.8696 131.0159 131.0159

          k =-0.1667 0.1667-0.1667 (    37 PWs)   bands (ev):

    48.5065  56.9048  56.9048  86.8732  92.4862  92.4862 103.4294 103.4294
   107.5653 118.4519 126.2189 136.1810

          k =-0.3333 0.3333-0.3333 (    34 PWs)   bands (ev):

    33.3436  54.8074  54.8074  81.9196  90.2647  90.2647 110.3851 111.1742
   111.1742 121.6258 133.4356 151.8306

          k = 0.5000-0.5000 0.5000 (    34 PWs)   bands (ev):

    26.9556  53.9435  53.9435  79.5771  88.1047  88.1047 107.8771 121.9145
   121.9145 131.6319 133.3654 142.8123

          k = 0.0000 0.3333 0.0000 (    31 PWs)   bands (ev):

    50.5277  54.5330  54.5330  82.5806  92.1432  97.8289  97.8289 110.5765
   110.9613 124.0489 134.0063 135.8504

          k =-0.1667 0.5000-0.1667 (    34 PWs)   bands (ev):

    37.9762  50.4866  51.6187  80.9613  87.8188  98.9350  99.5099 116.1243
   122.4291 125.8716 133.8241 143.4518

          k = 0.6667-0.3333 0.6667 (    35 PWs)   bands (ev):

    29.1898  46.3025  50.9792  79.6873  90.4103  94.9429 105.5818 119.9925
   122.4956 131.0531 138.5295 145.4496

          k = 0.5000-0.1667 0.5000 (    35 PWs)   bands (ev):

    31.2402  44.8931  53.2203  82.9629  90.6574  93.1416 108.3207 108.8897
   122.4471 130.7684 137.2378 144.5867

          k = 0.3333 0.0000 0.3333 (    38 PWs)   bands (ev):

    41.6057  48.1976  56.2594  89.1815  89.7509  95.4773  96.2933 101.7878
   123.3368 128.2362 129.6841 133.4881

          k = 0.0000 0.6667 0.0000 (    39 PWs)   bands (ev):

    35.7176  47.5786  47.5786  73.2301  75.9314 113.8784 113.8784 116.8303
   126.7529 132.7933 145.6366 149.2278

          k = 0.8333-0.1667 0.8333 (    35 PWs)   bands (ev):

    31.3681  41.2104  47.1260  72.8154  81.3220 110.3411 112.8324 124.5636
   130.5151 138.2223 145.5391 148.5020

          k = 0.6667-0.0000 0.6667 (    34 PWs)   bands (ev):

    33.8268  34.4178  49.3355  75.8222  97.1665 104.1164 104.8779 111.5232
   124.3973 132.9336 146.0445 149.7151

          k = 0.0000-1.0000 0.0000 (    40 PWs)   bands (ev):

    29.2084  45.3374  45.3374  69.9131  70.3147 122.7284 127.5222 127.5222
   129.7397 139.4360 141.4051 141.4051

          k = 0.6667-0.3333 1.0000 (    34 PWs)   bands (ev):

    33.8247  41.5727  48.7780  83.9826  85.3897  94.8805 112.4595 113.4014
   130.8435 135.3883 141.6293 143.7216

          k = 0.5000-0.1667 0.8333 (    30 PWs)   bands (ev):

    31.6916  38.6297  46.6382  84.1507  90.0084 100.0588 103.8896 117.6334
   131.5781 135.9265 142.3345 145.2573

          k =-0.3333-1.0000 0.0000 (    32 PWs)   bands (ev):

    31.8465  39.1610  42.7305  80.4850  83.7949 106.0448 106.8842 127.9229
   131.1517 144.0078 146.9307 148.5178

     the Fermi energy is   121.9755 ev

!    total energy              =    -199.82265604 Ry
     estimated scf accuracy    <       0.00000020 Ry
     smearing contrib. (-TS)   =      -0.00175409 Ry
     internal energy E=F+TS    =    -199.82090195 Ry

     The total energy is F=E-TS. E is the sum of the following terms:
     one-electron contribution =     120.52564759 Ry
     hartree contribution      =       2.82260713 Ry
     xc contribution           =     -62.34144746 Ry
     ewald contribution        =    -260.82770923 Ry

     convergence has been achieved in   4 iterations

     Writing all to output data dir /Users/vinhtran/Documents/GitHub/DFT/Energy-Lattice-Constant/Platinum/Platinum.save/

     init_run     :      0.26s CPU      0.27s WALL (       1 calls)
     electrons    :      0.08s CPU      0.10s WALL (       1 calls)

     Called by init_run:
     wfcinit      :      0.00s CPU      0.00s WALL (       1 calls)
     potinit      :      0.00s CPU      0.00s WALL (       1 calls)
     hinit0       :      0.26s CPU      0.26s WALL (       1 calls)

     Called by electrons:
     c_bands      :      0.06s CPU      0.06s WALL (       5 calls)
     sum_band     :      0.01s CPU      0.02s WALL (       5 calls)
     v_of_rho     :      0.00s CPU      0.00s WALL (       5 calls)
     newd         :      0.00s CPU      0.00s WALL (       5 calls)
     mix_rho      :      0.00s CPU      0.00s WALL (       5 calls)

     Called by c_bands:
     init_us_2    :      0.00s CPU      0.00s WALL (     176 calls)
     init_us_2:cp :      0.00s CPU      0.00s WALL (     176 calls)
     cegterg      :      0.05s CPU      0.06s WALL (      80 calls)

     Called by *egterg:
     cdiaghg      :      0.02s CPU      0.02s WALL (     213 calls)
     h_psi        :      0.03s CPU      0.03s WALL (     245 calls)
     s_psi        :      0.00s CPU      0.00s WALL (     245 calls)
     g_psi        :      0.00s CPU      0.00s WALL (     149 calls)

     Called by h_psi:
     h_psi:calbec :      0.00s CPU      0.00s WALL (     245 calls)
     vloc_psi     :      0.03s CPU      0.03s WALL (     245 calls)
     add_vuspsi   :      0.00s CPU      0.00s WALL (     245 calls)

     General routines
     calbec       :      0.00s CPU      0.00s WALL (     325 calls)
     fft          :      0.00s CPU      0.00s WALL (      56 calls)
     ffts         :      0.00s CPU      0.00s WALL (       5 calls)
     fftw         :      0.01s CPU      0.01s WALL (    5698 calls)

     Parallel routines

     PWSCF        :      0.42s CPU      0.46s WALL


   This run was terminated on:  19: 6:46  15Mar2022            

=------------------------------------------------------------------------------=
   JOB DONE.
=------------------------------------------------------------------------------=
