
     Program PWSCF v.7.0 starts on 14Mar2022 at 20:41:57 

     This program is part of the open-source Quantum ESPRESSO suite
     for quantum simulation of materials; please cite
         "P. Giannozzi et al., J. Phys.:Condens. Matter 21 395502 (2009);
         "P. Giannozzi et al., J. Phys.:Condens. Matter 29 465901 (2017);
         "P. Giannozzi et al., J. Chem. Phys. 152 154105 (2020);
          URL http://www.quantum-espresso.org", 
     in publications or presentations arising from this work. More details at
     http://www.quantum-espresso.org/quote

     Parallel version (MPI), running on     1 processors

     MPI processes distributed on     1 nodes
     0 MiB available memory on the printing compute node when the environment starts

     Reading input from pt.scf.in

     Current dimensions of program PWSCF are:
     Max number of different atomic species (ntypx) = 10
     Max number of k-points (npk) =  40000
     Max angular momentum in pseudopotentials (lmaxx) =  4

     Subspace diagonalization in iterative solution of the eigenvalue problem:
     a serial algorithm will be used


     G-vector sticks info
     --------------------
     sticks:   dense  smooth     PW     G-vecs:    dense   smooth      PW
     Sum         361     361    121                 8929     8929    1725

     Using Slab Decomposition



     bravais-lattice index     =            4
     lattice parameter (alat)  =       8.1000  a.u.
     unit-cell volume          =     736.3863 (a.u.)^3
     number of atoms/cell      =            2
     number of atomic types    =            1
     number of electrons       =        32.00
     number of Kohn-Sham states=           20
     kinetic-energy cutoff     =      20.0000  Ry
     charge density cutoff     =      80.0000  Ry
     scf convergence threshold =      1.0E-06
     mixing beta               =       0.7000
     number of iterations used =            8  plain     mixing
     Exchange-correlation=  SLA  PW   PBX  PBC
                           (   1   4   3   4   0   0   0)

     celldm(1)=   8.100000  celldm(2)=   0.000000  celldm(3)=   1.600000
     celldm(4)=   0.000000  celldm(5)=   0.000000  celldm(6)=   0.000000

     crystal axes: (cart. coord. in units of alat)
               a(1) = (   1.000000   0.000000   0.000000 )  
               a(2) = (  -0.500000   0.866025   0.000000 )  
               a(3) = (   0.000000   0.000000   1.600000 )  

     reciprocal axes: (cart. coord. in units 2 pi/alat)
               b(1) = (  1.000000  0.577350 -0.000000 )  
               b(2) = (  0.000000  1.154701  0.000000 )  
               b(3) = (  0.000000 -0.000000  0.625000 )  


     PseudoPot. # 1 for Pt read from file:
     /Users/vinhtran/Documents/GitHub/DFT/Energy-Lattice-Constant/Platinum/pt_pbe_v1.4.uspp.F.UPF
     MD5 check sum: f09d6de1a584b5a045c4fc126da2d0c4
     Pseudo is Ultrasoft + core correction, Zval = 16.0
     Generated by new atomic code, or converted to UPF format
     Using radial grid of  985 points,  6 beta functions with: 
                l(1) =   0
                l(2) =   0
                l(3) =   1
                l(4) =   1
                l(5) =   2
                l(6) =   2
     Q(r) pseudized with  8 coefficients,  rinner =    1.300   1.300   1.300
                                                       1.300   1.300

     atomic species   valence    mass     pseudopotential
        Pt            16.00   195.08400     Pt( 1.00)

     24 Sym. Ops., with inversion, found (12 have fractional translation)



   Cartesian axes

     site n.     atom                  positions (alat units)
         1           Pt  tau(   1) = (  -0.0000000   0.5773503   0.4000000  )
         2           Pt  tau(   2) = (   0.5000000   0.2886751   1.2000000  )

     number of k points=    36  Gaussian smearing, width (Ry)=  0.0600
                       cart. coord. in units 2pi/alat
        k(    1) = (   0.0833333   0.1443376   0.0520833), wk =   0.0370370
        k(    2) = (   0.0833333   0.1443376   0.1562500), wk =   0.0370370
        k(    3) = (   0.0833333   0.1443376   0.2604167), wk =   0.0370370
        k(    4) = (   0.0833333   0.3367877   0.0520833), wk =   0.0740741
        k(    5) = (   0.0833333   0.3367877   0.1562500), wk =   0.0740741
        k(    6) = (   0.0833333   0.3367877   0.2604167), wk =   0.0740741
        k(    7) = (   0.0833333   0.5292377   0.0520833), wk =   0.0740741
        k(    8) = (   0.0833333   0.5292377   0.1562500), wk =   0.0740741
        k(    9) = (   0.0833333   0.5292377   0.2604167), wk =   0.0740741
        k(   10) = (   0.0833333  -0.4330127   0.0520833), wk =   0.0740741
        k(   11) = (   0.0833333  -0.4330127   0.1562500), wk =   0.0740741
        k(   12) = (   0.0833333  -0.4330127   0.2604167), wk =   0.0740741
        k(   13) = (   0.0833333  -0.2405626   0.0520833), wk =   0.0740741
        k(   14) = (   0.0833333  -0.2405626   0.1562500), wk =   0.0740741
        k(   15) = (   0.0833333  -0.2405626   0.2604167), wk =   0.0740741
        k(   16) = (   0.0833333  -0.0481125   0.0520833), wk =   0.0370370
        k(   17) = (   0.0833333  -0.0481125   0.1562500), wk =   0.0370370
        k(   18) = (   0.0833333  -0.0481125   0.2604167), wk =   0.0370370
        k(   19) = (   0.2500000   0.4330127   0.0520833), wk =   0.0370370
        k(   20) = (   0.2500000   0.4330127   0.1562500), wk =   0.0370370
        k(   21) = (   0.2500000   0.4330127   0.2604167), wk =   0.0370370
        k(   22) = (   0.2500000   0.6254628   0.0520833), wk =   0.0740741
        k(   23) = (   0.2500000   0.6254628   0.1562500), wk =   0.0740741
        k(   24) = (   0.2500000   0.6254628   0.2604167), wk =   0.0740741
        k(   25) = (   0.2500000  -0.3367877   0.0520833), wk =   0.0740741
        k(   26) = (   0.2500000  -0.3367877   0.1562500), wk =   0.0740741
        k(   27) = (   0.2500000  -0.3367877   0.2604167), wk =   0.0740741
        k(   28) = (   0.2500000  -0.1443376   0.0520833), wk =   0.0370370
        k(   29) = (   0.2500000  -0.1443376   0.1562500), wk =   0.0370370
        k(   30) = (   0.2500000  -0.1443376   0.2604167), wk =   0.0370370
        k(   31) = (   0.4166667   0.7216878   0.0520833), wk =   0.0370370
        k(   32) = (   0.4166667   0.7216878   0.1562500), wk =   0.0370370
        k(   33) = (   0.4166667   0.7216878   0.2604167), wk =   0.0370370
        k(   34) = (   0.4166667  -0.2405626   0.0520833), wk =   0.0370370
        k(   35) = (   0.4166667  -0.2405626   0.1562500), wk =   0.0370370
        k(   36) = (   0.4166667  -0.2405626   0.2604167), wk =   0.0370370

     Dense  grid:     8929 G-vectors     FFT dimensions: (  24,  24,  40)

     Estimated max dynamical RAM per process >      44.80 MB

     Check: negative core charge=   -0.000408

     Initial potential from superposition of free atoms

     starting charge      31.0000, renormalised to      32.0000

     negative rho (up, down):  3.807E-01 0.000E+00
     Starting wfcs are   24 randomized atomic wfcs

     total cpu time spent up to now is        1.1 secs

     Self-consistent Calculation

     iteration #  1     ecut=    20.00 Ry     beta= 0.70
     Davidson diagonalization with overlap
     ethr =  1.00E-02,  avg # of iterations =  2.0

     negative rho (up, down):  3.372E-01 0.000E+00

     total cpu time spent up to now is        2.9 secs

     total energy              =    -416.56824642 Ry
     estimated scf accuracy    <       5.86592079 Ry

     iteration #  2     ecut=    20.00 Ry     beta= 0.70
     Davidson diagonalization with overlap
     ethr =  1.00E-02,  avg # of iterations =  2.4

     negative rho (up, down):  3.815E-01 0.000E+00

     total cpu time spent up to now is        4.9 secs

     total energy              =    -419.51994859 Ry
     estimated scf accuracy    <       7.41320905 Ry

     iteration #  3     ecut=    20.00 Ry     beta= 0.70
     Davidson diagonalization with overlap
     ethr =  1.00E-02,  avg # of iterations =  2.0

     negative rho (up, down):  3.840E-01 0.000E+00

     total cpu time spent up to now is        6.7 secs

     total energy              =    -419.99210421 Ry
     estimated scf accuracy    <       0.58855828 Ry

     iteration #  4     ecut=    20.00 Ry     beta= 0.70
     Davidson diagonalization with overlap
     ethr =  1.84E-03,  avg # of iterations =  1.3

     negative rho (up, down):  3.826E-01 0.000E+00

     total cpu time spent up to now is        8.3 secs

     total energy              =    -420.01741732 Ry
     estimated scf accuracy    <       0.08709876 Ry

     iteration #  5     ecut=    20.00 Ry     beta= 0.70
     Davidson diagonalization with overlap
     ethr =  2.72E-04,  avg # of iterations =  1.4

     negative rho (up, down):  3.831E-01 0.000E+00

     total cpu time spent up to now is        9.8 secs

     total energy              =    -420.00852611 Ry
     estimated scf accuracy    <       0.03314107 Ry

     iteration #  6     ecut=    20.00 Ry     beta= 0.70
     Davidson diagonalization with overlap
     ethr =  1.04E-04,  avg # of iterations =  2.0

     negative rho (up, down):  3.831E-01 0.000E+00

     total cpu time spent up to now is       11.5 secs

     total energy              =    -420.01417510 Ry
     estimated scf accuracy    <       0.00009283 Ry

     iteration #  7     ecut=    20.00 Ry     beta= 0.70
     Davidson diagonalization with overlap
     ethr =  2.90E-07,  avg # of iterations =  4.6

     negative rho (up, down):  3.831E-01 0.000E+00

     total cpu time spent up to now is       13.7 secs

     total energy              =    -420.01424737 Ry
     estimated scf accuracy    <       0.00000325 Ry

     iteration #  8     ecut=    20.00 Ry     beta= 0.70
     Davidson diagonalization with overlap
     ethr =  1.02E-08,  avg # of iterations =  3.1

     negative rho (up, down):  3.831E-01 0.000E+00

     total cpu time spent up to now is       15.9 secs

     total energy              =    -420.01423445 Ry
     estimated scf accuracy    <       0.00010062 Ry

     iteration #  9     ecut=    20.00 Ry     beta= 0.70
     Davidson diagonalization with overlap
     ethr =  1.02E-08,  avg # of iterations =  3.0

     negative rho (up, down):  3.831E-01 0.000E+00

     total cpu time spent up to now is       18.0 secs

     total energy              =    -420.01424596 Ry
     estimated scf accuracy    <       0.00000279 Ry

     iteration # 10     ecut=    20.00 Ry     beta= 0.70
     Davidson diagonalization with overlap
     ethr =  8.71E-09,  avg # of iterations =  1.0

     negative rho (up, down):  3.831E-01 0.000E+00

     total cpu time spent up to now is       19.5 secs

     total energy              =    -420.01424552 Ry
     estimated scf accuracy    <       0.00000129 Ry

     iteration # 11     ecut=    20.00 Ry     beta= 0.70
     Davidson diagonalization with overlap
     ethr =  4.05E-09,  avg # of iterations =  2.0

     negative rho (up, down):  3.831E-01 0.000E+00

     total cpu time spent up to now is       21.2 secs

     End of self-consistent calculation

          k = 0.0833 0.1443 0.0521 (  1111 PWs)   bands (ev):

   -49.6338 -49.6182 -49.6110 -49.6099 -49.5774 -49.5704  -0.3914   0.6374
     0.8843   0.9674   0.9783   1.0212   1.0471   1.0596   1.1055   1.2193
     1.2937   2.3935   4.8120   9.2349

          k = 0.0833 0.1443 0.1562 (  1107 PWs)   bands (ev):

   -49.6275 -49.6054 -49.6022 -49.5895 -49.5857 -49.5613  -0.2139   0.6295
     0.9061   0.9307   0.9379   0.9976   1.0608   1.1117   1.1547   1.2021
     1.2755   1.8363   5.8193   9.4348

          k = 0.0833 0.1443 0.2604 (  1111 PWs)   bands (ev):

   -49.6408 -49.6158 -49.5975 -49.5919 -49.5860 -49.5804   0.1146   0.4618
     0.8755   0.8798   0.9389   0.9825   1.0309   1.0476   1.2096   1.2362
     1.2841   1.3890   7.1789   8.6354

          k = 0.0833 0.3368 0.0521 (  1112 PWs)   bands (ev):

   -49.6316 -49.6185 -49.6041 -49.5881 -49.5731 -49.5550   0.2543   0.7318
     0.8730   0.9381   0.9808   1.0060   1.1202   1.1590   1.2344   1.2636
     1.3590   2.6904   5.7086   6.7281

          k = 0.0833 0.3368 0.1562 (  1109 PWs)   bands (ev):

   -49.6219 -49.6117 -49.5977 -49.5914 -49.5713 -49.5508   0.3632   0.7625
     0.8737   0.9133   1.0042   1.0332   1.0995   1.1797   1.2303   1.2770
     1.3478   2.3021   5.9769   7.3353

          k = 0.0833 0.3368 0.2604 (  1117 PWs)   bands (ev):

   -49.6472 -49.6174 -49.6039 -49.5995 -49.5973 -49.5753   0.5306   0.7132
     0.8140   0.8720   1.0153   1.0390   1.0973   1.1263   1.2562   1.2989
     1.4347   1.8162   6.4207   6.9864

          k = 0.0833 0.5292 0.0521 (  1117 PWs)   bands (ev):

   -49.6247 -49.6207 -49.6004 -49.5941 -49.5820 -49.5754   0.6068   0.6788
     0.7897   0.9274   1.0078   1.0615   1.2043   1.2916   1.3182   1.3561
     2.0276   2.6990   5.2082   6.3945

          k = 0.0833 0.5292 0.1562 (  1114 PWs)   bands (ev):

   -49.6277 -49.6224 -49.5985 -49.5900 -49.5788 -49.5499   0.5717   0.7184
     0.8429   0.8642   0.9386   1.1432   1.2545   1.2923   1.3248   1.3465
     2.1325   2.7338   4.7956   5.7759

          k = 0.0833 0.5292 0.2604 (  1114 PWs)   bands (ev):

   -49.6331 -49.6248 -49.6228 -49.5871 -49.5619 -49.5500   0.6021   0.6961
     0.7896   0.8336   1.0195   1.1525   1.2580   1.2766   1.3019   1.3467
     2.3582   2.6226   4.7272   5.1262

          k = 0.0833-0.4330 0.0521 (  1115 PWs)   bands (ev):

   -49.6241 -49.6115 -49.6083 -49.5868 -49.5777 -49.5699   0.5121   0.7118
     0.8208   0.9361   1.0194   1.0523   1.1347   1.2450   1.2915   1.3532
     1.5364   2.8409   5.5435   6.5663

          k = 0.0833-0.4330 0.1562 (  1117 PWs)   bands (ev):

   -49.6434 -49.6217 -49.6039 -49.6034 -49.5869 -49.5511   0.5219   0.7285
     0.8518   0.8689   0.9715   1.1010   1.1835   1.2332   1.2984   1.3280
     1.6079   2.6247   5.2763   6.5431

          k = 0.0833-0.4330 0.2604 (  1117 PWs)   bands (ev):

   -49.6294 -49.6163 -49.6117 -49.6006 -49.5888 -49.5694   0.5803   0.7027
     0.8009   0.8491   1.0340   1.1336   1.1856   1.2237   1.2689   1.3278
     1.8535   2.2423   5.4387   5.9199

          k = 0.0833-0.2406 0.0521 (  1109 PWs)   bands (ev):

   -49.6423 -49.6267 -49.6015 -49.5867 -49.5645 -49.5463  -0.1057   0.7264
     0.9059   0.9379   0.9517   0.9887   1.0852   1.1439   1.1521   1.2122
     1.3279   2.5118   5.2142   7.9393

          k = 0.0833-0.2406 0.1562 (  1108 PWs)   bands (ev):

   -49.6236 -49.6132 -49.6080 -49.5899 -49.5754 -49.5543   0.0570   0.7454
     0.8873   0.9155   0.9375   1.0216   1.0846   1.1191   1.1593   1.2088
     1.3033   2.0239   6.0365   8.2015

          k = 0.0833-0.2406 0.2604 (  1117 PWs)   bands (ev):

   -49.6541 -49.6189 -49.6092 -49.6052 -49.5997 -49.5773   0.3420   0.6487
     0.8321   0.8752   0.9280   0.9699   1.0468   1.0706   1.2146   1.2661
     1.2788   1.5515   7.0967   8.0255

          k = 0.0833-0.0481 0.0521 (  1102 PWs)   bands (ev):

   -49.6270 -49.6263 -49.5964 -49.5790 -49.5584 -49.5581  -0.5427   0.5681
     0.9140   0.9630   0.9921   1.0245   1.0749   1.0841   1.0922   1.2648
     1.2976   2.3364   4.6018  10.1158

          k = 0.0833-0.0481 0.1562 (  1111 PWs)   bands (ev):

   -49.6328 -49.6175 -49.6166 -49.5901 -49.5853 -49.5793  -0.3611   0.5260
     0.9152   0.9415   0.9446   0.9850   1.0256   1.1301   1.1372   1.2236
     1.2482   1.7173   5.6750  10.2328

          k = 0.0833-0.0481 0.2604 (  1116 PWs)   bands (ev):

   -49.6648 -49.6313 -49.6094 -49.5933 -49.5879 -49.5736  -0.0239   0.3335
     0.8961   0.9227   0.9494   0.9516   0.9775   1.0626   1.1968   1.2292
     1.2403   1.2998   7.1226   8.7547

          k = 0.2500 0.4330 0.0521 (  1106 PWs)   bands (ev):

   -49.6203 -49.6065 -49.5867 -49.5583 -49.5578 -49.5369   0.7236   0.7732
     0.8891   0.9101   1.0203   1.0680   1.1134   1.2426   1.3075   1.3418
     1.8291   2.8745   5.9296   6.1313

          k = 0.2500 0.4330 0.1562 (  1108 PWs)   bands (ev):

   -49.6226 -49.6204 -49.5809 -49.5678 -49.5533 -49.5532   0.6886   0.7705
     0.9170   0.9192   1.0162   1.0997   1.1245   1.2249   1.2495   1.3425
     1.9357   2.7660   5.6521   5.9874

          k = 0.2500 0.4330 0.2604 (  1108 PWs)   bands (ev):

   -49.6258 -49.6225 -49.6014 -49.5663 -49.5480 -49.5448   0.6932   0.7330
     0.9374   0.9444   1.0289   1.1102   1.1202   1.1217   1.3013   1.3485
     2.1768   2.5063   5.6073   5.8534

          k = 0.2500 0.6255 0.0521 (  1115 PWs)   bands (ev):

   -49.6300 -49.6062 -49.6026 -49.5869 -49.5792 -49.5576   0.7331   0.8006
     0.8646   0.9400   0.9930   1.0635   1.1332   1.2698   1.3009   1.3047
     2.2248   2.7176   5.4362   6.4924

          k = 0.2500 0.6255 0.1562 (  1108 PWs)   bands (ev):

   -49.6174 -49.6102 -49.5764 -49.5727 -49.5686 -49.5492   0.7157   0.8025
     0.8599   0.9497   1.0198   1.1199   1.1493   1.2302   1.2894   1.3487
     2.3477   2.7614   5.4096   5.9759

          k = 0.2500 0.6255 0.2604 (  1100 PWs)   bands (ev):

   -49.6060 -49.6028 -49.5652 -49.5539 -49.5472 -49.5392   0.7227   0.7541
     0.9437   0.9792   1.0470   1.1249   1.1518   1.1734   1.3270   1.3565
     2.5558   2.7302   5.3387   5.5693

          k = 0.2500-0.3368 0.0521 (  1110 PWs)   bands (ev):

   -49.6199 -49.6139 -49.5862 -49.5821 -49.5642 -49.5593   0.5228   0.8082
     0.8393   0.9144   0.9794   1.0450   1.0999   1.1984   1.2863   1.3383
     1.4879   2.8296   5.9721   6.5354

          k = 0.2500-0.3368 0.1562 (  1115 PWs)   bands (ev):

   -49.6306 -49.6210 -49.6076 -49.5959 -49.5777 -49.5601   0.5586   0.7905
     0.8480   0.9339   0.9768   1.0596   1.0786   1.1987   1.2373   1.3085
     1.5497   2.5554   5.7707   6.6957

          k = 0.2500-0.3368 0.2604 (  1112 PWs)   bands (ev):

   -49.6274 -49.6069 -49.6035 -49.5884 -49.5706 -49.5697   0.6335   0.7346
     0.8745   0.9200   1.0242   1.0541   1.0874   1.1452   1.2796   1.3430
     1.7612   2.1357   5.9719   6.3837

          k = 0.2500-0.1443 0.0521 (  1110 PWs)   bands (ev):

   -49.6353 -49.6245 -49.6234 -49.5999 -49.5612 -49.5238   0.0212   0.7056
     0.8993   0.9670   0.9719   0.9840   1.1260   1.1315   1.1861   1.1963
     1.3397   2.5750   5.3954   7.2632

          k = 0.2500-0.1443 0.1562 (  1110 PWs)   bands (ev):

   -49.6245 -49.6166 -49.6112 -49.6009 -49.5725 -49.5489   0.1662   0.7208
     0.8899   0.9242   0.9930   0.9954   1.1010   1.1248   1.1956   1.2058
     1.3281   2.1087   6.0587   7.6575

          k = 0.2500-0.1443 0.2604 (  1116 PWs)   bands (ev):

   -49.6390 -49.6126 -49.6110 -49.6066 -49.5947 -49.5826   0.4176   0.6655
     0.8280   0.8720   1.0061   1.0410   1.0692   1.0739   1.2095   1.2730
     1.3020   1.6202   6.8493   7.5880

          k = 0.4167 0.7217 0.0521 (  1119 PWs)   bands (ev):

   -49.6262 -49.6110 -49.6094 -49.6017 -49.5892 -49.5823   0.6854   0.7534
     0.7841   0.9238   0.9855   1.1081   1.1407   1.2749   1.2919   1.3255
     2.2336   2.6296   5.3018   6.4928

          k = 0.4167 0.7217 0.1562 (  1113 PWs)   bands (ev):

   -49.6299 -49.6072 -49.6066 -49.5781 -49.5711 -49.5610   0.6489   0.7953
     0.8569   0.8777   0.9253   1.1538   1.1960   1.2616   1.3003   1.3457
     2.3401   2.7101   4.9975   5.8471

          k = 0.4167 0.7217 0.2604 (  1106 PWs)   bands (ev):

   -49.6254 -49.6186 -49.5842 -49.5800 -49.5428 -49.5387   0.6709   0.7413
     0.8464   0.8943   1.0067   1.1224   1.2423   1.2502   1.3140   1.3567
     2.5316   2.7067   4.8888   5.2204

          k = 0.4167-0.2406 0.0521 (  1115 PWs)   bands (ev):

   -49.6418 -49.6052 -49.5987 -49.5955 -49.5752 -49.5527   0.5295   0.6639
     0.8071   0.9215   1.0443   1.0669   1.2452   1.2513   1.3140   1.3738
     1.7184   2.8122   5.2415   6.6803

          k = 0.4167-0.2406 0.1562 (  1111 PWs)   bands (ev):

   -49.6316 -49.6239 -49.6019 -49.5852 -49.5690 -49.5260   0.5317   0.6986
     0.8412   0.8714   0.9768   1.1314   1.2331   1.2934   1.3390   1.3655
     1.8363   2.7195   4.8831   6.0751

          k = 0.4167-0.2406 0.2604 (  1119 PWs)   bands (ev):

   -49.6456 -49.6346 -49.6170 -49.6044 -49.5732 -49.5597   0.5678   0.6696
     0.7816   0.8179   1.0208   1.1367   1.2387   1.2632   1.3216   1.3354
     2.0791   2.4347   4.9453   5.4099

     the Fermi energy is     1.8680 ev

!    total energy              =    -420.01424573 Ry
     estimated scf accuracy    <          1.8E-09 Ry
     smearing contrib. (-TS)   =      -0.16301034 Ry
     internal energy E=F+TS    =    -419.85123540 Ry

     The total energy is F=E-TS. E is the sum of the following terms:
     one-electron contribution =    -215.08245592 Ry
     hartree contribution      =     114.20676497 Ry
     xc contribution           =    -112.67280220 Ry
     ewald contribution        =    -206.30274226 Ry

     convergence has been achieved in  11 iterations

     Writing all to output data dir /Users/vinhtran/Documents/GitHub/DFT/Energy-Lattice-Constant/Platinum/pt.save/

     init_run     :      0.97s CPU      1.00s WALL (       1 calls)
     electrons    :     19.40s CPU     20.09s WALL (       1 calls)

     Called by init_run:
     wfcinit      :      0.57s CPU      0.59s WALL (       1 calls)
     potinit      :      0.02s CPU      0.02s WALL (       1 calls)
     hinit0       :      0.35s CPU      0.35s WALL (       1 calls)

     Called by electrons:
     c_bands      :     15.63s CPU     16.20s WALL (      11 calls)
     sum_band     :      3.36s CPU      3.45s WALL (      11 calls)
     v_of_rho     :      0.12s CPU      0.13s WALL (      12 calls)
     newd         :      0.30s CPU      0.33s WALL (      12 calls)
     mix_rho      :      0.02s CPU      0.02s WALL (      11 calls)

     Called by c_bands:
     init_us_2    :      0.43s CPU      0.44s WALL (     828 calls)
     init_us_2:cp :      0.43s CPU      0.44s WALL (     828 calls)
     cegterg      :     12.81s CPU     13.33s WALL (     396 calls)

     Called by *egterg:
     cdiaghg      :      0.52s CPU      0.53s WALL (    1287 calls)
     h_psi        :     11.30s CPU     11.59s WALL (    1323 calls)
     s_psi        :      0.15s CPU      0.17s WALL (    1323 calls)
     g_psi        :      0.15s CPU      0.15s WALL (     891 calls)

     Called by h_psi:
     h_psi:calbec :      0.22s CPU      0.29s WALL (    1323 calls)
     vloc_psi     :     10.87s CPU     11.04s WALL (    1323 calls)
     add_vuspsi   :      0.16s CPU      0.21s WALL (    1323 calls)

     General routines
     calbec       :      0.29s CPU      0.39s WALL (    1719 calls)
     fft          :      0.03s CPU      0.03s WALL (     132 calls)
     ffts         :      0.00s CPU      0.00s WALL (      11 calls)
     fftw         :      7.07s CPU      7.17s WALL (   50306 calls)

     Parallel routines

     PWSCF        :     20.48s CPU     21.22s WALL


   This run was terminated on:  20:42:18  14Mar2022            

=------------------------------------------------------------------------------=
   JOB DONE.
=------------------------------------------------------------------------------=
