
     Program PWSCF v.7.0 starts on 15Mar2022 at 19:40:38 

     This program is part of the open-source Quantum ESPRESSO suite
     for quantum simulation of materials; please cite
         "P. Giannozzi et al., J. Phys.:Condens. Matter 21 395502 (2009);
         "P. Giannozzi et al., J. Phys.:Condens. Matter 29 465901 (2017);
         "P. Giannozzi et al., J. Chem. Phys. 152 154105 (2020);
          URL http://www.quantum-espresso.org", 
     in publications or presentations arising from this work. More details at
     http://www.quantum-espresso.org/quote

     Parallel version (MPI), running on     1 processors

     MPI processes distributed on     1 nodes
     0 MiB available memory on the printing compute node when the environment starts

     Reading input from Pt.scf.in
     Message from routine read_cards :
     DEPRECATED: no units specified in ATOMIC_POSITIONS card
     Message from routine read_cards :
     ATOMIC_POSITIONS: units set to alat

     Current dimensions of program PWSCF are:
     Max number of different atomic species (ntypx) = 10
     Max number of k-points (npk) =  40000
     Max angular momentum in pseudopotentials (lmaxx) =  4

     Subspace diagonalization in iterative solution of the eigenvalue problem:
     a serial algorithm will be used


     G-vector sticks info
     --------------------
     sticks:   dense  smooth     PW     G-vecs:    dense   smooth      PW
     Sum         361     361    121                 4477     4477     893

     Using Slab Decomposition



     bravais-lattice index     =            2
     lattice parameter (alat)  =      11.4000  a.u.
     unit-cell volume          =     370.3860 (a.u.)^3
     number of atoms/cell      =            1
     number of atomic types    =            1
     number of electrons       =        16.00
     number of Kohn-Sham states=           12
     kinetic-energy cutoff     =      20.0000  Ry
     charge density cutoff     =      80.0000  Ry
     scf convergence threshold =      1.0E-06
     mixing beta               =       0.7000
     number of iterations used =            8  plain     mixing
     Exchange-correlation=  SLA  PW   PBX  PBC
                           (   1   4   3   4   0   0   0)

     celldm(1)=  11.400000  celldm(2)=   0.000000  celldm(3)=   0.000000
     celldm(4)=   0.000000  celldm(5)=   0.000000  celldm(6)=   0.000000

     crystal axes: (cart. coord. in units of alat)
               a(1) = (  -0.500000   0.000000   0.500000 )  
               a(2) = (   0.000000   0.500000   0.500000 )  
               a(3) = (  -0.500000   0.500000   0.000000 )  

     reciprocal axes: (cart. coord. in units 2 pi/alat)
               b(1) = ( -1.000000 -1.000000  1.000000 )  
               b(2) = (  1.000000  1.000000  1.000000 )  
               b(3) = ( -1.000000  1.000000 -1.000000 )  


     PseudoPot. # 1 for Pt read from file:
     /Users/vinhtran/Documents/GitHub/DFT/Energy-Lattice-Constant/Platinum/pt_pbe_v1.4.uspp.F.UPF
     MD5 check sum: f09d6de1a584b5a045c4fc126da2d0c4
     Pseudo is Ultrasoft + core correction, Zval = 16.0
     Generated by new atomic code, or converted to UPF format
     Using radial grid of  985 points,  6 beta functions with: 
                l(1) =   0
                l(2) =   0
                l(3) =   1
                l(4) =   1
                l(5) =   2
                l(6) =   2
     Q(r) pseudized with  8 coefficients,  rinner =    1.300   1.300   1.300
                                                       1.300   1.300

     atomic species   valence    mass     pseudopotential
        Pt            16.00   195.08400     Pt( 1.00)

     48 Sym. Ops., with inversion, found



   Cartesian axes

     site n.     atom                  positions (alat units)
         1           Pt  tau(   1) = (   0.0000000   0.0000000   0.0000000  )

     number of k points=    28  Methfessel-Paxton smearing, width (Ry)=  0.0600
                       cart. coord. in units 2pi/alat
        k(    1) = (  -0.0833333   0.0833333   0.0833333), wk =   0.0185185
        k(    2) = (  -0.2500000   0.2500000  -0.0833333), wk =   0.0555556
        k(    3) = (  -0.4166667   0.4166667  -0.2500000), wk =   0.0555556
        k(    4) = (   0.4166667  -0.4166667   0.5833333), wk =   0.0555556
        k(    5) = (   0.2500000  -0.2500000   0.4166667), wk =   0.0555556
        k(    6) = (   0.0833333  -0.0833333   0.2500000), wk =   0.0555556
        k(    7) = (  -0.0833333   0.4166667   0.0833333), wk =   0.0555556
        k(    8) = (  -0.2500000   0.5833333  -0.0833333), wk =   0.1111111
        k(    9) = (   0.5833333  -0.2500000   0.7500000), wk =   0.1111111
        k(   10) = (   0.4166667  -0.0833333   0.5833333), wk =   0.1111111
        k(   11) = (   0.2500000   0.0833333   0.4166667), wk =   0.1111111
        k(   12) = (  -0.0833333   0.7500000   0.0833333), wk =   0.0555556
        k(   13) = (   0.7500000  -0.0833333   0.9166667), wk =   0.1111111
        k(   14) = (   0.5833333   0.0833333   0.7500000), wk =   0.1111111
        k(   15) = (   0.4166667   0.2500000   0.5833333), wk =   0.1111111
        k(   16) = (  -0.0833333  -0.9166667   0.0833333), wk =   0.0555556
        k(   17) = (  -0.2500000  -0.7500000  -0.0833333), wk =   0.1111111
        k(   18) = (  -0.0833333  -0.5833333   0.0833333), wk =   0.0555556
        k(   19) = (  -0.2500000   0.2500000   0.2500000), wk =   0.0185185
        k(   20) = (  -0.4166667   0.4166667   0.0833333), wk =   0.0555556
        k(   21) = (   0.4166667  -0.4166667   0.9166667), wk =   0.0555556
        k(   22) = (   0.2500000  -0.2500000   0.7500000), wk =   0.0555556
        k(   23) = (  -0.2500000   0.5833333   0.2500000), wk =   0.0555556
        k(   24) = (   0.5833333  -0.2500000   1.0833333), wk =   0.1111111
        k(   25) = (   0.4166667  -0.0833333   0.9166667), wk =   0.1111111
        k(   26) = (  -0.2500000  -1.0833333   0.2500000), wk =   0.0555556
        k(   27) = (  -0.4166667   0.4166667   0.4166667), wk =   0.0185185
        k(   28) = (   0.4166667  -0.4166667   1.2500000), wk =   0.0555556

     Dense  grid:     4477 G-vectors     FFT dimensions: (  24,  24,  24)

     Estimated max dynamical RAM per process >      19.43 MB

     Check: negative core charge=   -0.000415

     Initial potential from superposition of free atoms

     starting charge      15.5000, renormalised to      16.0000

     negative rho (up, down):  2.125E-01 0.000E+00
     Starting wfcs are   12 randomized atomic wfcs

     total cpu time spent up to now is        0.5 secs

     Self-consistent Calculation

     iteration #  1     ecut=    20.00 Ry     beta= 0.70
     Davidson diagonalization with overlap
     ethr =  1.00E-02,  avg # of iterations =  2.1

     negative rho (up, down):  1.878E-01 0.000E+00

     total cpu time spent up to now is        0.8 secs

     total energy              =    -208.14786593 Ry
     estimated scf accuracy    <       3.03793460 Ry

     iteration #  2     ecut=    20.00 Ry     beta= 0.70
     Davidson diagonalization with overlap
     ethr =  1.00E-02,  avg # of iterations =  2.1

     negative rho (up, down):  2.136E-01 0.000E+00

     total cpu time spent up to now is        1.2 secs

     total energy              =    -209.76037649 Ry
     estimated scf accuracy    <       3.85852488 Ry

     iteration #  3     ecut=    20.00 Ry     beta= 0.70
     Davidson diagonalization with overlap
     ethr =  1.00E-02,  avg # of iterations =  2.0

     negative rho (up, down):  2.159E-01 0.000E+00

     total cpu time spent up to now is        1.6 secs

     total energy              =    -209.94394528 Ry
     estimated scf accuracy    <       0.38877048 Ry

     iteration #  4     ecut=    20.00 Ry     beta= 0.70
     Davidson diagonalization with overlap
     ethr =  2.43E-03,  avg # of iterations =  1.0

     negative rho (up, down):  2.155E-01 0.000E+00

     total cpu time spent up to now is        1.9 secs

     total energy              =    -209.95811308 Ry
     estimated scf accuracy    <       0.05752030 Ry

     iteration #  5     ecut=    20.00 Ry     beta= 0.70
     Davidson diagonalization with overlap
     ethr =  3.60E-04,  avg # of iterations =  1.0

     negative rho (up, down):  2.161E-01 0.000E+00

     total cpu time spent up to now is        2.2 secs

     total energy              =    -209.95269060 Ry
     estimated scf accuracy    <       0.01891595 Ry

     iteration #  6     ecut=    20.00 Ry     beta= 0.70
     Davidson diagonalization with overlap
     ethr =  1.18E-04,  avg # of iterations =  2.0
     Minimization algorithm failed to find Fermi energy: reverting to bisection
     Possible cause: smearing is larger than the electronic band-gap.

     negative rho (up, down):  2.162E-01 0.000E+00

     total cpu time spent up to now is        2.6 secs

     total energy              =    -209.95615445 Ry
     estimated scf accuracy    <       0.00003028 Ry

     iteration #  7     ecut=    20.00 Ry     beta= 0.70
     Davidson diagonalization with overlap
     ethr =  1.89E-07,  avg # of iterations =  3.5
     Minimization algorithm failed to find Fermi energy: reverting to bisection
     Possible cause: smearing is larger than the electronic band-gap.

     negative rho (up, down):  2.162E-01 0.000E+00

     total cpu time spent up to now is        3.0 secs

     total energy              =    -209.95615685 Ry
     estimated scf accuracy    <       0.00001715 Ry

     iteration #  8     ecut=    20.00 Ry     beta= 0.70
     Davidson diagonalization with overlap
     ethr =  1.07E-07,  avg # of iterations =  2.0
     Minimization algorithm failed to find Fermi energy: reverting to bisection
     Possible cause: smearing is larger than the electronic band-gap.

     negative rho (up, down):  2.162E-01 0.000E+00

     total cpu time spent up to now is        3.3 secs

     total energy              =    -209.95616102 Ry
     estimated scf accuracy    <       0.00001006 Ry

     iteration #  9     ecut=    20.00 Ry     beta= 0.70
     Davidson diagonalization with overlap
     ethr =  6.29E-08,  avg # of iterations =  2.0
     Minimization algorithm failed to find Fermi energy: reverting to bisection
     Possible cause: smearing is larger than the electronic band-gap.

     negative rho (up, down):  2.162E-01 0.000E+00

     total cpu time spent up to now is        3.7 secs

     End of self-consistent calculation

          k =-0.0833 0.0833 0.0833 (   543 PWs)   bands (ev):

   -49.4941 -49.4368 -49.4368  -0.5934   0.9735   1.0682   1.0682   1.2587
     1.2587  11.0988  12.1530  12.1530

          k =-0.2500 0.2500-0.0833 (   561 PWs)   bands (ev):

   -49.5427 -49.5097 -49.5062  -0.1461   0.9125   1.0281   1.0737   1.1484
     1.2507   8.7685  10.6476  12.2304

          k =-0.4167 0.4167-0.2500 (   563 PWs)   bands (ev):

   -49.5314 -49.5207 -49.4820   0.4635   0.9878   1.0041   1.2482   1.2912
     1.5791   5.7344  10.1771  11.4284

          k = 0.4167-0.4167 0.5833 (   566 PWs)   bands (ev):

   -49.5505 -49.5293 -49.4937   0.5384   0.9429   0.9908   1.3036   1.3287
     2.3136   4.3744  10.3438  10.7984

          k = 0.2500-0.2500 0.4167 (   561 PWs)   bands (ev):

   -49.5169 -49.5137 -49.4931   0.3431   0.9914   1.0541   1.0666   1.2729
     1.3729   6.6766  10.8255  11.0289

          k = 0.0833-0.0833 0.2500 (   557 PWs)   bands (ev):

   -49.5454 -49.4983 -49.4786  -0.3618   0.9361   1.0321   1.0481   1.1593
     1.2437   9.9108  11.3924  11.6646

          k =-0.0833 0.4167 0.0833 (   565 PWs)   bands (ev):

   -49.5671 -49.5316 -49.4924   0.0728   0.8572   1.0230   1.0779   1.1711
     1.2768   8.7499  10.4631  10.5801

          k =-0.2500 0.5833-0.0833 (   555 PWs)   bands (ev):

   -49.4985 -49.4770 -49.4677   0.6571   0.9006   1.0215   1.2227   1.3135
     1.6085   6.8457   8.8740   9.9539

          k = 0.5833-0.2500 0.7500 (   558 PWs)   bands (ev):

   -49.5212 -49.4842 -49.4687   0.7548   0.9500   1.1304   1.1720   1.3621
     2.4731   5.0127   8.2119   9.5642

          k = 0.4167-0.0833 0.5833 (   558 PWs)   bands (ev):

   -49.5258 -49.4827 -49.4699   0.7476   0.9522   1.0397   1.1760   1.2784
     1.8925   6.1172   8.0593  10.3319

          k = 0.2500 0.0833 0.4167 (   559 PWs)   bands (ev):

   -49.5206 -49.5017 -49.4892   0.2486   0.9044   1.0164   1.1195   1.2110
     1.3664   7.7237   9.7267  11.4064

          k =-0.0833 0.7500 0.0833 (   560 PWs)   bands (ev):

   -49.5122 -49.4984 -49.4702   0.6964   0.7389   1.2800   1.3104   1.3965
     1.9810   6.3292   8.5691   9.0373

          k = 0.7500-0.0833 0.9167 (   560 PWs)   bands (ev):

   -49.5260 -49.4792 -49.4636   0.7332   0.8139   1.2487   1.3086   1.4251
     2.8079   5.4782   7.3603   8.4256

          k = 0.5833 0.0833 0.7500 (   555 PWs)   bands (ev):

   -49.5064 -49.4680 -49.4540   0.8212   1.0066   1.1311   1.2151   1.3421
     2.6255   5.6386   6.8438   9.2124

          k = 0.4167 0.2500 0.5833 (   563 PWs)   bands (ev):

   -49.5370 -49.5195 -49.4761   0.6271   0.9464   1.0557   1.2091   1.3022
     2.0618   5.1069   9.3627  10.4875

          k =-0.0833-0.9167 0.0833 (   562 PWs)   bands (ev):

   -49.5141 -49.5054 -49.4692   0.6859   0.7140   1.3643   1.3707   1.3893
     2.7911   5.2146   8.1374   8.7138

          k =-0.2500-0.7500-0.0833 (   561 PWs)   bands (ev):

   -49.5077 -49.5010 -49.4877   0.7508   0.8445   1.1329   1.2795   1.3477
     2.1715   6.0914   8.0100   8.8704

          k =-0.0833-0.5833 0.0833 (   562 PWs)   bands (ev):

   -49.5263 -49.5142 -49.4925   0.5559   0.7804   1.1193   1.2016   1.3148
     1.3818   7.5877   9.4327   9.6442

          k =-0.2500 0.2500 0.2500 (   564 PWs)   bands (ev):

   -49.5306 -49.5243 -49.5243   0.0346   1.0049   1.0203   1.0203   1.2082
     1.2082   7.6760  11.6165  11.6165

          k =-0.4167 0.4167 0.0833 (   560 PWs)   bands (ev):

   -49.5301 -49.5065 -49.4728   0.5216   0.9559   1.0497   1.0716   1.2336
     1.5292   6.7913   8.8390  11.5836

          k = 0.4167-0.4167 0.9167 (   557 PWs)   bands (ev):

   -49.5122 -49.4837 -49.4647   0.7710   1.0011   1.1231   1.1703   1.3061
     2.2613   5.6698   7.3367  10.3720

          k = 0.2500-0.2500 0.7500 (   558 PWs)   bands (ev):

   -49.5246 -49.4817 -49.4644   0.7189   0.9704   1.1273   1.1974   1.3644
     2.3170   5.5019   8.0236   9.5867

          k =-0.2500 0.5833 0.2500 (   562 PWs)   bands (ev):

   -49.5173 -49.5105 -49.4902   0.6008   0.9543   1.0636   1.1120   1.3540
     1.7495   5.9130   9.5798  10.1094

          k = 0.5833-0.2500 1.0833 (   559 PWs)   bands (ev):

   -49.5085 -49.5003 -49.4738   0.8644   0.9374   1.0267   1.2326   1.3309
     2.4066   5.7817   7.4060   8.8537

          k = 0.4167-0.0833 0.9167 (   553 PWs)   bands (ev):

   -49.4886 -49.4631 -49.4418   0.8774   0.9747   1.1073   1.2520   1.4060
     2.8192   5.9016   6.7698   7.9679

          k =-0.2500-1.0833 0.2500 (   556 PWs)   bands (ev):

   -49.5015 -49.4699 -49.4614   0.7487   0.9474   1.2118   1.2654   1.3799
     2.7617   5.5930   6.7433   9.3149

          k =-0.4167 0.4167 0.4167 (   559 PWs)   bands (ev):

   -49.5106 -49.5106 -49.4683   0.4808   0.9953   0.9953   1.3499   1.3499
     1.9301   4.8238  11.1446  11.1446

          k = 0.4167-0.4167 1.2500 (   563 PWs)   bands (ev):

   -49.5457 -49.5045 -49.4860   0.6611   0.9538   1.0548   1.2368   1.3099
     2.3784   4.7230   8.8034  10.5209

     the Fermi energy is     1.6662 ev

!    total energy              =    -209.95616297 Ry
     estimated scf accuracy    <       0.00000079 Ry
     smearing contrib. (-TS)   =      -0.00590201 Ry
     internal energy E=F+TS    =    -209.95026095 Ry

     The total energy is F=E-TS. E is the sum of the following terms:
     one-electron contribution =    -108.00060244 Ry
     hartree contribution      =      57.36140365 Ry
     xc contribution           =     -56.35275586 Ry
     ewald contribution        =    -102.95830630 Ry

     convergence has been achieved in   9 iterations

     Writing all to output data dir /Users/vinhtran/Documents/GitHub/DFT/Energy-Lattice-Constant/Platinum/Platinum.save/

     init_run     :      0.38s CPU      0.38s WALL (       1 calls)
     electrons    :      3.18s CPU      3.26s WALL (       1 calls)

     Called by init_run:
     wfcinit      :      0.10s CPU      0.10s WALL (       1 calls)
     potinit      :      0.01s CPU      0.01s WALL (       1 calls)
     hinit0       :      0.25s CPU      0.26s WALL (       1 calls)

     Called by electrons:
     c_bands      :      2.42s CPU      2.48s WALL (       9 calls)
     sum_band     :      0.64s CPU      0.65s WALL (       9 calls)
     v_of_rho     :      0.05s CPU      0.05s WALL (      10 calls)
     newd         :      0.08s CPU      0.08s WALL (      10 calls)
     mix_rho      :      0.01s CPU      0.01s WALL (       9 calls)

     Called by c_bands:
     init_us_2    :      0.09s CPU      0.09s WALL (     532 calls)
     init_us_2:cp :      0.09s CPU      0.09s WALL (     532 calls)
     cegterg      :      2.05s CPU      2.10s WALL (     252 calls)

     Called by *egterg:
     cdiaghg      :      0.07s CPU      0.07s WALL (     751 calls)
     h_psi        :      1.86s CPU      1.89s WALL (     779 calls)
     s_psi        :      0.02s CPU      0.02s WALL (     779 calls)
     g_psi        :      0.02s CPU      0.02s WALL (     499 calls)

     Called by h_psi:
     h_psi:calbec :      0.03s CPU      0.04s WALL (     779 calls)
     vloc_psi     :      1.80s CPU      1.83s WALL (     779 calls)
     add_vuspsi   :      0.02s CPU      0.02s WALL (     779 calls)

     General routines
     calbec       :      0.04s CPU      0.05s WALL (    1031 calls)
     fft          :      0.01s CPU      0.01s WALL (     110 calls)
     ffts         :      0.00s CPU      0.00s WALL (       9 calls)
     fftw         :      1.18s CPU      1.19s WALL (   18380 calls)

     Parallel routines

     PWSCF        :      3.64s CPU      3.73s WALL


   This run was terminated on:  19:40:42  15Mar2022            

=------------------------------------------------------------------------------=
   JOB DONE.
=------------------------------------------------------------------------------=
