
     Program PWSCF v.7.0 starts on 15Mar2022 at 17:55:13 

     This program is part of the open-source Quantum ESPRESSO suite
     for quantum simulation of materials; please cite
         "P. Giannozzi et al., J. Phys.:Condens. Matter 21 395502 (2009);
         "P. Giannozzi et al., J. Phys.:Condens. Matter 29 465901 (2017);
         "P. Giannozzi et al., J. Chem. Phys. 152 154105 (2020);
          URL http://www.quantum-espresso.org", 
     in publications or presentations arising from this work. More details at
     http://www.quantum-espresso.org/quote

     Parallel version (MPI), running on     1 processors

     MPI processes distributed on     1 nodes
     0 MiB available memory on the printing compute node when the environment starts

     Reading input from pt.test2.in

     Current dimensions of program PWSCF are:
     Max number of different atomic species (ntypx) = 10
     Max number of k-points (npk) =  40000
     Max angular momentum in pseudopotentials (lmaxx) =  4

     Subspace diagonalization in iterative solution of the eigenvalue problem:
     a serial algorithm will be used


     G-vector sticks info
     --------------------
     sticks:   dense  smooth     PW     G-vecs:    dense   smooth      PW
     Sum         361     361    121                 9085     9085    1761

     Using Slab Decomposition



     bravais-lattice index     =            4
     lattice parameter (alat)  =       8.1000  a.u.
     unit-cell volume          =     751.5742 (a.u.)^3
     number of atoms/cell      =            2
     number of atomic types    =            1
     number of electrons       =        32.00
     number of Kohn-Sham states=           20
     kinetic-energy cutoff     =      20.0000  Ry
     charge density cutoff     =      80.0000  Ry
     scf convergence threshold =      1.0E-06
     mixing beta               =       0.7000
     number of iterations used =            8  plain     mixing
     Exchange-correlation=  SLA  PW   PBX  PBC
                           (   1   4   3   4   0   0   0)

     celldm(1)=   8.100000  celldm(2)=   0.000000  celldm(3)=   1.633000
     celldm(4)=   0.000000  celldm(5)=   0.000000  celldm(6)=   0.000000

     crystal axes: (cart. coord. in units of alat)
               a(1) = (   1.000000   0.000000   0.000000 )  
               a(2) = (  -0.500000   0.866025   0.000000 )  
               a(3) = (   0.000000   0.000000   1.633000 )  

     reciprocal axes: (cart. coord. in units 2 pi/alat)
               b(1) = (  1.000000  0.577350 -0.000000 )  
               b(2) = (  0.000000  1.154701  0.000000 )  
               b(3) = (  0.000000 -0.000000  0.612370 )  


     PseudoPot. # 1 for Pt read from file:
     /Users/vinhtran/Documents/GitHub/DFT/Energy-Lattice-Constant/Platinum/pt_pbe_v1.4.uspp.F.UPF
     MD5 check sum: f09d6de1a584b5a045c4fc126da2d0c4
     Pseudo is Ultrasoft + core correction, Zval = 16.0
     Generated by new atomic code, or converted to UPF format
     Using radial grid of  985 points,  6 beta functions with: 
                l(1) =   0
                l(2) =   0
                l(3) =   1
                l(4) =   1
                l(5) =   2
                l(6) =   2
     Q(r) pseudized with  8 coefficients,  rinner =    1.300   1.300   1.300
                                                       1.300   1.300

     atomic species   valence    mass     pseudopotential
        Pt            16.00   195.08400     Pt( 1.00)

     12 Sym. Ops. (no inversion) found



   Cartesian axes

     site n.     atom                  positions (alat units)
         1           Pt  tau(   1) = (   0.0000000   0.0000000   0.0000000  )
         2           Pt  tau(   2) = (   0.4999950   0.2886722   0.8165000  )

     number of k points=    24  Gaussian smearing, width (Ry)=  0.0800
                       cart. coord. in units 2pi/alat
        k(    1) = (   0.0833333   0.1443376   0.1020616), wk =   0.0740741
        k(    2) = (   0.0833333   0.1443376  -0.3061849), wk =   0.0370370
        k(    3) = (   0.0833333   0.3367877   0.1020616), wk =   0.1481481
        k(    4) = (   0.0833333   0.3367877  -0.3061849), wk =   0.0740741
        k(    5) = (   0.0833333   0.5292377   0.1020616), wk =   0.1481481
        k(    6) = (   0.0833333   0.5292377  -0.3061849), wk =   0.0740741
        k(    7) = (   0.0833333  -0.4330127   0.1020616), wk =   0.1481481
        k(    8) = (   0.0833333  -0.4330127  -0.3061849), wk =   0.0740741
        k(    9) = (   0.0833333  -0.2405626   0.1020616), wk =   0.1481481
        k(   10) = (   0.0833333  -0.2405626  -0.3061849), wk =   0.0740741
        k(   11) = (   0.0833333  -0.0481125   0.1020616), wk =   0.0740741
        k(   12) = (   0.0833333  -0.0481125  -0.3061849), wk =   0.0370370
        k(   13) = (   0.2500000   0.4330127   0.1020616), wk =   0.0740741
        k(   14) = (   0.2500000   0.4330127  -0.3061849), wk =   0.0370370
        k(   15) = (   0.2500000   0.6254628   0.1020616), wk =   0.1481481
        k(   16) = (   0.2500000   0.6254628  -0.3061849), wk =   0.0740741
        k(   17) = (   0.2500000  -0.3367877   0.1020616), wk =   0.1481481
        k(   18) = (   0.2500000  -0.3367877  -0.3061849), wk =   0.0740741
        k(   19) = (   0.2500000  -0.1443376   0.1020616), wk =   0.0740741
        k(   20) = (   0.2500000  -0.1443376  -0.3061849), wk =   0.0370370
        k(   21) = (   0.4166667   0.7216878   0.1020616), wk =   0.0740741
        k(   22) = (   0.4166667   0.7216878  -0.3061849), wk =   0.0370370
        k(   23) = (   0.4166667  -0.2405626   0.1020616), wk =   0.0740741
        k(   24) = (   0.4166667  -0.2405626  -0.3061849), wk =   0.0370370

     Dense  grid:     9085 G-vectors     FFT dimensions: (  24,  24,  40)

     Estimated max dynamical RAM per process >      41.42 MB

     Check: negative core charge=   -0.000403

     Initial potential from superposition of free atoms

     starting charge      31.0000, renormalised to      32.0000

     negative rho (up, down):  3.834E-01 0.000E+00
     Starting wfcs are   24 randomized atomic wfcs

     total cpu time spent up to now is        0.7 secs

     Self-consistent Calculation

     iteration #  1     ecut=    20.00 Ry     beta= 0.70
     Davidson diagonalization with overlap
     ethr =  1.00E-02,  avg # of iterations =  2.0

     negative rho (up, down):  3.393E-01 0.000E+00

     total cpu time spent up to now is        1.7 secs

     total energy              =    -416.59485766 Ry
     estimated scf accuracy    <       5.91776162 Ry

     iteration #  2     ecut=    20.00 Ry     beta= 0.70
     Davidson diagonalization with overlap
     ethr =  1.00E-02,  avg # of iterations =  2.5

     negative rho (up, down):  3.843E-01 0.000E+00

     total cpu time spent up to now is        2.7 secs

     total energy              =    -419.52639276 Ry
     estimated scf accuracy    <       7.47917498 Ry

     iteration #  3     ecut=    20.00 Ry     beta= 0.70
     Davidson diagonalization with overlap
     ethr =  1.00E-02,  avg # of iterations =  2.0

     negative rho (up, down):  3.860E-01 0.000E+00

     total cpu time spent up to now is        3.7 secs

     total energy              =    -420.04969235 Ry
     estimated scf accuracy    <       0.52347203 Ry

     iteration #  4     ecut=    20.00 Ry     beta= 0.70
     Davidson diagonalization with overlap
     ethr =  1.64E-03,  avg # of iterations =  1.6

     negative rho (up, down):  3.844E-01 0.000E+00

     total cpu time spent up to now is        4.5 secs

     total energy              =    -420.07616216 Ry
     estimated scf accuracy    <       0.07882656 Ry

     iteration #  5     ecut=    20.00 Ry     beta= 0.70
     Davidson diagonalization with overlap
     ethr =  2.46E-04,  avg # of iterations =  1.2

     negative rho (up, down):  3.838E-01 0.000E+00

     total cpu time spent up to now is        5.3 secs

     total energy              =    -420.06739491 Ry
     estimated scf accuracy    <       0.25716721 Ry

     iteration #  6     ecut=    20.00 Ry     beta= 0.70
     Davidson diagonalization with overlap
     ethr =  2.46E-04,  avg # of iterations =  1.0

     negative rho (up, down):  3.838E-01 0.000E+00

     total cpu time spent up to now is        6.1 secs

     total energy              =    -420.06547169 Ry
     estimated scf accuracy    <       0.02546571 Ry

     iteration #  7     ecut=    20.00 Ry     beta= 0.70
     Davidson diagonalization with overlap
     ethr =  7.96E-05,  avg # of iterations =  2.0

     negative rho (up, down):  3.838E-01 0.000E+00

     total cpu time spent up to now is        7.0 secs

     total energy              =    -420.06938878 Ry
     estimated scf accuracy    <       0.00009726 Ry

     iteration #  8     ecut=    20.00 Ry     beta= 0.70
     Davidson diagonalization with overlap
     ethr =  3.04E-07,  avg # of iterations =  3.1

     negative rho (up, down):  3.838E-01 0.000E+00

     total cpu time spent up to now is        8.0 secs

     total energy              =    -420.06941606 Ry
     estimated scf accuracy    <       0.00000781 Ry

     iteration #  9     ecut=    20.00 Ry     beta= 0.70
     Davidson diagonalization with overlap
     ethr =  2.44E-08,  avg # of iterations =  2.1

     negative rho (up, down):  3.838E-01 0.000E+00

     total cpu time spent up to now is        8.9 secs

     total energy              =    -420.06941462 Ry
     estimated scf accuracy    <       0.00000838 Ry

     iteration # 10     ecut=    20.00 Ry     beta= 0.70
     Davidson diagonalization with overlap
     ethr =  2.44E-08,  avg # of iterations =  1.2

     negative rho (up, down):  3.838E-01 0.000E+00

     total cpu time spent up to now is        9.7 secs

     total energy              =    -420.06941458 Ry
     estimated scf accuracy    <       0.00000144 Ry

     iteration # 11     ecut=    20.00 Ry     beta= 0.70
     Davidson diagonalization with overlap
     ethr =  4.51E-09,  avg # of iterations =  2.0

     negative rho (up, down):  3.838E-01 0.000E+00

     total cpu time spent up to now is       10.5 secs

     End of self-consistent calculation

          k = 0.0833 0.1443 0.1021 (  1135 PWs)   bands (ev):

   -49.9265 -49.9243 -49.9141 -49.8955 -49.8760 -49.8726  -0.4484   0.3937
     0.6372   0.7007   0.7048   0.7823   0.8269   0.8421   0.8557   0.9426
     1.0040   1.8451   4.9910   9.1418

          k = 0.0833 0.1443-0.3062 (  1138 PWs)   bands (ev):

   -49.9514 -49.9514 -49.9033 -49.9032 -49.8730 -49.8730   0.1281   0.1282
     0.6465   0.6465   0.7129   0.7129   0.7823   0.7823   0.9332   0.9332
     1.0305   1.0305   7.5495   7.5495

          k = 0.0833 0.3368 0.1021 (  1136 PWs)   bands (ev):

   -49.9278 -49.9064 -49.9026 -49.8907 -49.8816 -49.8598   0.1539   0.5092
     0.6549   0.6713   0.7420   0.7858   0.8427   0.8962   0.9867   1.0132
     1.0724   2.2484   5.6153   6.7782

          k = 0.0833 0.3368-0.3062 (  1134 PWs)   bands (ev):

   -49.9101 -49.9100 -49.8977 -49.8977 -49.8744 -49.8743   0.4409   0.4409
     0.6201   0.6201   0.7985   0.7985   0.8662   0.8662   1.0189   1.0189
     1.3674   1.3675   6.5093   6.5093

          k = 0.0833 0.5292 0.1021 (  1142 PWs)   bands (ev):

   -49.9352 -49.9138 -49.9056 -49.8935 -49.8897 -49.8732   0.3837   0.4604
     0.5824   0.6785   0.7153   0.8219   0.9827   1.0329   1.0419   1.0560
     1.8690   2.5063   4.8113   5.8765

          k = 0.0833 0.5292-0.3062 (  1132 PWs)   bands (ev):

   -49.9141 -49.9140 -49.8903 -49.8903 -49.8465 -49.8465   0.4399   0.4399
     0.5943   0.5943   0.8349   0.8349   1.0237   1.0238   1.0716   1.0716
     2.2753   2.2754   4.7275   4.7275

          k = 0.0833-0.4330 0.1021 (  1141 PWs)   bands (ev):

   -49.9258 -49.9203 -49.9079 -49.8995 -49.8822 -49.8671   0.3349   0.4847
     0.6146   0.6826   0.7465   0.7885   0.9063   0.9783   1.0314   1.0573
     1.3450   2.5064   5.2069   6.5656

          k = 0.0833-0.4330-0.3062 (  1140 PWs)   bands (ev):

   -49.9171 -49.9170 -49.9007 -49.9006 -49.8821 -49.8820   0.4298   0.4298
     0.5927   0.5927   0.8396   0.8396   0.9511   0.9511   1.0320   1.0320
     1.8114   1.8115   5.4847   5.4847

          k = 0.0833-0.2406 0.1021 (  1132 PWs)   bands (ev):

   -49.9302 -49.9128 -49.9017 -49.8899 -49.8710 -49.8449  -0.1708   0.4938
     0.6667   0.6839   0.7115   0.7849   0.8386   0.8734   0.9008   0.9493
     1.0267   2.0058   5.3202   7.8690

          k = 0.0833-0.2406-0.3062 (  1134 PWs)   bands (ev):

   -49.9260 -49.9260 -49.8983 -49.8982 -49.8723 -49.8722   0.3333   0.3333
     0.6379   0.6380   0.7129   0.7129   0.8286   0.8286   0.9629   0.9629
     1.1374   1.1374   7.3364   7.3364

          k = 0.0833-0.0481 0.1021 (  1131 PWs)   bands (ev):

   -49.9395 -49.9151 -49.9140 -49.8842 -49.8653 -49.8629  -0.5979   0.3134
     0.6625   0.6964   0.7170   0.7564   0.7936   0.8746   0.8904   0.9555
     1.0216   1.7521   4.8132  10.0133

          k = 0.0833-0.0481-0.3062 (  1142 PWs)   bands (ev):

   -49.9543 -49.9543 -49.9223 -49.9222 -49.8684 -49.8684  -0.0032  -0.0032
     0.6709   0.6709   0.7218   0.7218   0.7413   0.7413   0.9259   0.9259
     0.9799   0.9799   7.5314   7.5314

          k = 0.2500 0.4330 0.1021 (  1128 PWs)   bands (ev):

   -49.9287 -49.9042 -49.8738 -49.8579 -49.8553 -49.8337   0.5178   0.5626
     0.6739   0.6768   0.7850   0.8257   0.8652   0.9508   1.0045   1.0960
     1.6675   2.6013   5.6678   5.8129

          k = 0.2500 0.4330-0.3062 (  1128 PWs)   bands (ev):

   -49.9068 -49.9068 -49.8611 -49.8610 -49.8574 -49.8574   0.5207   0.5207
     0.6963   0.6963   0.8269   0.8269   0.8785   0.8785   1.0619   1.0619
     2.1203   2.1204   5.5505   5.5505

          k = 0.2500 0.6255 0.1021 (  1136 PWs)   bands (ev):

   -49.9324 -49.9184 -49.8862 -49.8783 -49.8746 -49.8502   0.5176   0.5873
     0.6296   0.7057   0.7523   0.8529   0.8796   0.9834   0.9941   1.0489
     2.0796   2.5295   5.2879   6.0091

          k = 0.2500 0.6255-0.3062 (  1126 PWs)   bands (ev):

   -49.8849 -49.8848 -49.8688 -49.8687 -49.8561 -49.8561   0.5364   0.5364
     0.7231   0.7231   0.8235   0.8235   0.9027   0.9028   1.0639   1.0639
     2.4333   2.4334   5.2550   5.2550

          k = 0.2500-0.3368 0.1021 (  1136 PWs)   bands (ev):

   -49.9278 -49.9062 -49.8941 -49.8828 -49.8767 -49.8640   0.3744   0.5658
     0.6363   0.6794   0.7545   0.8048   0.8236   0.9010   1.0162   1.0330
     1.2866   2.4596   5.6490   6.5200

          k = 0.2500-0.3368-0.3062 (  1134 PWs)   bands (ev):

   -49.9062 -49.9062 -49.8923 -49.8923 -49.8724 -49.8723   0.4891   0.4891
     0.6585   0.6585   0.8110   0.8110   0.8545   0.8545   1.0446   1.0446
     1.7016   1.7016   5.9932   5.9932

          k = 0.2500-0.1443 0.1021 (  1133 PWs)   bands (ev):

   -49.9354 -49.9042 -49.9039 -49.9015 -49.8638 -49.8414  -0.0553   0.4838
     0.6700   0.7056   0.7378   0.7730   0.8677   0.8813   0.9163   0.9340
     1.0520   2.0878   5.4499   7.2280

          k = 0.2500-0.1443-0.3062 (  1134 PWs)   bands (ev):

   -49.9123 -49.9123 -49.8984 -49.8983 -49.8826 -49.8826   0.3725   0.3725
     0.6262   0.6262   0.7939   0.7939   0.8192   0.8192   0.9834   0.9834
     1.1864   1.1865   7.0126   7.0126

          k = 0.4167 0.7217 0.1021 (  1140 PWs)   bands (ev):

   -49.9234 -49.9210 -49.9066 -49.8950 -49.8738 -49.8713   0.4556   0.5431
     0.6247   0.6868   0.7042   0.8657   0.9339   0.9841   1.0037   1.0311
     2.0766   2.4654   4.9795   5.9588

          k = 0.4167 0.7217-0.3062 (  1118 PWs)   bands (ev):

   -49.8880 -49.8880 -49.8525 -49.8524 -49.8270 -49.8270   0.5160   0.5160
     0.6460   0.6461   0.8445   0.8445   1.0169   1.0170   1.0822   1.0822
     2.4126   2.4126   4.8522   4.8522

          k = 0.4167-0.2406 0.1021 (  1138 PWs)   bands (ev):

   -49.9280 -49.9273 -49.8978 -49.8906 -49.8715 -49.8475   0.3401   0.4545
     0.5847   0.7005   0.7288   0.8045   0.9872   1.0349   1.0447   1.0919
     1.5703   2.5476   4.8655   6.1711

          k = 0.4167-0.2406-0.3062 (  1140 PWs)   bands (ev):

   -49.9269 -49.9268 -49.8957 -49.8957 -49.8767 -49.8767   0.4048   0.4048
     0.5724   0.5724   0.8508   0.8508   1.0159   1.0159   1.0303   1.0303
     2.0315   2.0316   4.9823   4.9824

     the Fermi energy is     1.7922 ev

!    total energy              =    -420.06941475 Ry
     estimated scf accuracy    <       0.00000004 Ry
     smearing contrib. (-TS)   =      -0.25766128 Ry
     internal energy E=F+TS    =    -419.81175347 Ry

     The total energy is F=E-TS. E is the sum of the following terms:
     one-electron contribution =    -217.22254276 Ry
     hartree contribution      =     114.96267208 Ry
     xc contribution           =    -112.63468558 Ry
     ewald contribution        =    -204.91719720 Ry

     convergence has been achieved in  11 iterations

     Writing all to output data dir /Users/vinhtran/Documents/GitHub/DFT/Energy-Lattice-Constant/Platinum/pt.save/

     init_run     :      0.60s CPU      0.61s WALL (       1 calls)
     electrons    :      9.54s CPU      9.85s WALL (       1 calls)

     Called by init_run:
     wfcinit      :      0.29s CPU      0.30s WALL (       1 calls)
     potinit      :      0.02s CPU      0.02s WALL (       1 calls)
     hinit0       :      0.26s CPU      0.26s WALL (       1 calls)

     Called by electrons:
     c_bands      :      7.40s CPU      7.64s WALL (      11 calls)
     sum_band     :      1.82s CPU      1.87s WALL (      11 calls)
     v_of_rho     :      0.09s CPU      0.10s WALL (      12 calls)
     newd         :      0.24s CPU      0.26s WALL (      12 calls)
     mix_rho      :      0.02s CPU      0.02s WALL (      11 calls)

     Called by c_bands:
     init_us_2    :      0.22s CPU      0.23s WALL (     552 calls)
     init_us_2:cp :      0.22s CPU      0.23s WALL (     552 calls)
     cegterg      :      5.92s CPU      6.15s WALL (     264 calls)

     Called by *egterg:
     cdiaghg      :      0.22s CPU      0.22s WALL (     758 calls)
     h_psi        :      5.28s CPU      5.39s WALL (     782 calls)
     s_psi        :      0.07s CPU      0.09s WALL (     782 calls)
     g_psi        :      0.07s CPU      0.07s WALL (     494 calls)

     Called by h_psi:
     h_psi:calbec :      0.11s CPU      0.15s WALL (     782 calls)
     vloc_psi     :      5.07s CPU      5.10s WALL (     782 calls)
     add_vuspsi   :      0.08s CPU      0.11s WALL (     782 calls)

     General routines
     calbec       :      0.15s CPU      0.20s WALL (    1046 calls)
     fft          :      0.02s CPU      0.03s WALL (     132 calls)
     ffts         :      0.00s CPU      0.00s WALL (      11 calls)
     fftw         :      3.31s CPU      3.34s WALL (   31008 calls)

     Parallel routines

     PWSCF        :     10.22s CPU     10.57s WALL


   This run was terminated on:  17:55:24  15Mar2022            

=------------------------------------------------------------------------------=
   JOB DONE.
=------------------------------------------------------------------------------=
