
     Program PWSCF v.7.0 starts on 15Mar2022 at 18: 7:28 

     This program is part of the open-source Quantum ESPRESSO suite
     for quantum simulation of materials; please cite
         "P. Giannozzi et al., J. Phys.:Condens. Matter 21 395502 (2009);
         "P. Giannozzi et al., J. Phys.:Condens. Matter 29 465901 (2017);
         "P. Giannozzi et al., J. Chem. Phys. 152 154105 (2020);
          URL http://www.quantum-espresso.org", 
     in publications or presentations arising from this work. More details at
     http://www.quantum-espresso.org/quote

     Parallel version (MPI), running on     1 processors

     MPI processes distributed on     1 nodes
     0 MiB available memory on the printing compute node when the environment starts

     Reading input from pt.test2.in
Warning: card  #PT 0.00 0.577350269 0.8165 ignored

     Current dimensions of program PWSCF are:
     Max number of different atomic species (ntypx) = 10
     Max number of k-points (npk) =  40000
     Max angular momentum in pseudopotentials (lmaxx) =  4

     Subspace diagonalization in iterative solution of the eigenvalue problem:
     a serial algorithm will be used


     G-vector sticks info
     --------------------
     sticks:   dense  smooth     PW     G-vecs:    dense   smooth      PW
     Sum         177     177     61                 1743     1743     341

     Using Slab Decomposition



     bravais-lattice index     =            1
     lattice parameter (alat)  =       5.2500  a.u.
     unit-cell volume          =     144.7031 (a.u.)^3
     number of atoms/cell      =            1
     number of atomic types    =            1
     number of electrons       =        16.00
     number of Kohn-Sham states=           12
     kinetic-energy cutoff     =      20.0000  Ry
     charge density cutoff     =      80.0000  Ry
     scf convergence threshold =      1.0E-06
     mixing beta               =       0.7000
     number of iterations used =            8  plain     mixing
     Exchange-correlation=  SLA  PW   PBX  PBC
                           (   1   4   3   4   0   0   0)

     celldm(1)=   5.250000  celldm(2)=   0.000000  celldm(3)=   0.000000
     celldm(4)=   0.000000  celldm(5)=   0.000000  celldm(6)=   0.000000

     crystal axes: (cart. coord. in units of alat)
               a(1) = (   1.000000   0.000000   0.000000 )  
               a(2) = (   0.000000   1.000000   0.000000 )  
               a(3) = (   0.000000   0.000000   1.000000 )  

     reciprocal axes: (cart. coord. in units 2 pi/alat)
               b(1) = (  1.000000  0.000000  0.000000 )  
               b(2) = (  0.000000  1.000000  0.000000 )  
               b(3) = (  0.000000  0.000000  1.000000 )  


     PseudoPot. # 1 for Pt read from file:
     /Users/vinhtran/Documents/GitHub/DFT/Energy-Lattice-Constant/Platinum/pt_pbe_v1.4.uspp.F.UPF
     MD5 check sum: f09d6de1a584b5a045c4fc126da2d0c4
     Pseudo is Ultrasoft + core correction, Zval = 16.0
     Generated by new atomic code, or converted to UPF format
     Using radial grid of  985 points,  6 beta functions with: 
                l(1) =   0
                l(2) =   0
                l(3) =   1
                l(4) =   1
                l(5) =   2
                l(6) =   2
     Q(r) pseudized with  8 coefficients,  rinner =    1.300   1.300   1.300
                                                       1.300   1.300

     atomic species   valence    mass     pseudopotential
        Pt            16.00   195.08400     Pt( 1.00)

     48 Sym. Ops., with inversion, found



   Cartesian axes

     site n.     atom                  positions (alat units)
         1           Pt  tau(   1) = (   0.0000000   0.0000000   0.0000000  )

     number of k points=     3  Gaussian smearing, width (Ry)=  0.0800
                       cart. coord. in units 2pi/alat
        k(    1) = (   0.1250000   0.1250000   0.2500000), wk =   0.5000000
        k(    2) = (   0.1250000   0.3750000   0.2500000), wk =   1.0000000
        k(    3) = (   0.3750000   0.3750000   0.2500000), wk =   0.5000000

     Dense  grid:     1743 G-vectors     FFT dimensions: (  15,  15,  15)

     Estimated max dynamical RAM per process >       6.87 MB

     Check: negative core charge=   -0.000564

     Initial potential from superposition of free atoms

     starting charge      15.5000, renormalised to      16.0000

     negative rho (up, down):  1.858E-01 0.000E+00
     Starting wfcs are   12 randomized atomic wfcs

     total cpu time spent up to now is        0.3 secs

     Self-consistent Calculation

     iteration #  1     ecut=    20.00 Ry     beta= 0.70
     Davidson diagonalization with overlap
     ethr =  1.00E-02,  avg # of iterations =  4.0

     negative rho (up, down):  1.692E-01 0.000E+00

     total cpu time spent up to now is        0.4 secs

     total energy              =    -209.62036845 Ry
     estimated scf accuracy    <       1.45737851 Ry

     iteration #  2     ecut=    20.00 Ry     beta= 0.70
     Davidson diagonalization with overlap
     ethr =  9.11E-03,  avg # of iterations =  2.0

     negative rho (up, down):  1.834E-01 0.000E+00

     total cpu time spent up to now is        0.4 secs

     total energy              =    -210.08123063 Ry
     estimated scf accuracy    <       0.85863779 Ry

     iteration #  3     ecut=    20.00 Ry     beta= 0.70
     Davidson diagonalization with overlap
     ethr =  5.37E-03,  avg # of iterations =  2.0

     negative rho (up, down):  1.841E-01 0.000E+00

     total cpu time spent up to now is        0.4 secs

     total energy              =    -210.24024316 Ry
     estimated scf accuracy    <       0.00056568 Ry

     iteration #  4     ecut=    20.00 Ry     beta= 0.70
     Davidson diagonalization with overlap
     ethr =  3.54E-06,  avg # of iterations =  5.7

     negative rho (up, down):  1.844E-01 0.000E+00

     total cpu time spent up to now is        0.4 secs

     total energy              =    -210.24072488 Ry
     estimated scf accuracy    <       0.00004221 Ry

     iteration #  5     ecut=    20.00 Ry     beta= 0.70
     Davidson diagonalization with overlap
     ethr =  2.64E-07,  avg # of iterations =  2.0

     negative rho (up, down):  1.845E-01 0.000E+00

     total cpu time spent up to now is        0.4 secs

     total energy              =    -210.24072872 Ry
     estimated scf accuracy    <       0.00000208 Ry

     iteration #  6     ecut=    20.00 Ry     beta= 0.70
     Davidson diagonalization with overlap
     ethr =  1.30E-08,  avg # of iterations =  2.0

     negative rho (up, down):  1.845E-01 0.000E+00

     total cpu time spent up to now is        0.5 secs

     End of self-consistent calculation

          k = 0.1250 0.1250 0.2500 (   216 PWs)   bands (ev):

   -38.7978 -38.7823 -38.7142   8.8142  10.0429  10.8896  12.7468  12.9108
    13.4345  23.2775  27.7442  28.5392

          k = 0.1250 0.3750 0.2500 (   214 PWs)   bands (ev):

   -38.8471 -38.7587 -38.7194  10.0573  10.6784  11.6855  12.1789  12.9777
    14.2984  20.8451  26.2019  30.7212

          k = 0.3750 0.3750 0.2500 (   220 PWs)   bands (ev):

   -38.8852 -38.8516 -38.8129  10.2019  11.1467  11.3195  12.1444  13.7314
    16.2825  22.5352  24.3760  27.4668

     the Fermi energy is    13.7413 ev

!    total energy              =    -210.24072926 Ry
     estimated scf accuracy    <       0.00000006 Ry
     smearing contrib. (-TS)   =      -0.06907730 Ry
     internal energy E=F+TS    =    -210.17165196 Ry

     The total energy is F=E-TS. E is the sum of the following terms:
     one-electron contribution =     -50.03251949 Ry
     hartree contribution      =      34.69333261 Ry
     xc contribution           =     -56.48043553 Ry
     ewald contribution        =    -138.35202955 Ry

     convergence has been achieved in   6 iterations

     Writing all to output data dir /Users/vinhtran/Documents/GitHub/DFT/Energy-Lattice-Constant/Platinum/pt.save/

     init_run     :      0.26s CPU      0.26s WALL (       1 calls)
     electrons    :      0.12s CPU      0.13s WALL (       1 calls)

     Called by init_run:
     wfcinit      :      0.00s CPU      0.00s WALL (       1 calls)
     potinit      :      0.00s CPU      0.00s WALL (       1 calls)
     hinit0       :      0.25s CPU      0.25s WALL (       1 calls)

     Called by electrons:
     c_bands      :      0.05s CPU      0.06s WALL (       6 calls)
     sum_band     :      0.04s CPU      0.04s WALL (       6 calls)
     v_of_rho     :      0.01s CPU      0.01s WALL (       7 calls)
     newd         :      0.02s CPU      0.02s WALL (       7 calls)
     mix_rho      :      0.00s CPU      0.00s WALL (       6 calls)

     Called by c_bands:
     init_us_2    :      0.00s CPU      0.00s WALL (      39 calls)
     init_us_2:cp :      0.00s CPU      0.00s WALL (      39 calls)
     cegterg      :      0.04s CPU      0.05s WALL (      18 calls)

     Called by *egterg:
     cdiaghg      :      0.01s CPU      0.01s WALL (      71 calls)
     h_psi        :      0.03s CPU      0.03s WALL (      74 calls)
     s_psi        :      0.00s CPU      0.00s WALL (      74 calls)
     g_psi        :      0.00s CPU      0.00s WALL (      53 calls)

     Called by h_psi:
     h_psi:calbec :      0.00s CPU      0.00s WALL (      74 calls)
     vloc_psi     :      0.03s CPU      0.03s WALL (      74 calls)
     add_vuspsi   :      0.00s CPU      0.00s WALL (      74 calls)

     General routines
     calbec       :      0.00s CPU      0.00s WALL (      92 calls)
     fft          :      0.00s CPU      0.00s WALL (      77 calls)
     ffts         :      0.00s CPU      0.00s WALL (       6 calls)
     fftw         :      0.01s CPU      0.01s WALL (    1430 calls)

     Parallel routines

     PWSCF        :      0.45s CPU      0.47s WALL


   This run was terminated on:  18: 7:29  15Mar2022            

=------------------------------------------------------------------------------=
   JOB DONE.
=------------------------------------------------------------------------------=
