
     Program PWSCF v.7.0 starts on 15Mar2022 at 18: 5:17 

     This program is part of the open-source Quantum ESPRESSO suite
     for quantum simulation of materials; please cite
         "P. Giannozzi et al., J. Phys.:Condens. Matter 21 395502 (2009);
         "P. Giannozzi et al., J. Phys.:Condens. Matter 29 465901 (2017);
         "P. Giannozzi et al., J. Chem. Phys. 152 154105 (2020);
          URL http://www.quantum-espresso.org", 
     in publications or presentations arising from this work. More details at
     http://www.quantum-espresso.org/quote

     Parallel version (MPI), running on     1 processors

     MPI processes distributed on     1 nodes
     0 MiB available memory on the printing compute node when the environment starts

     Reading input from pt.test2.in

     Current dimensions of program PWSCF are:
     Max number of different atomic species (ntypx) = 10
     Max number of k-points (npk) =  40000
     Max angular momentum in pseudopotentials (lmaxx) =  4

     Subspace diagonalization in iterative solution of the eigenvalue problem:
     a serial algorithm will be used


     G-vector sticks info
     --------------------
     sticks:   dense  smooth     PW     G-vecs:    dense   smooth      PW
     Sum         151     151     55                 2539     2539     549

     Using Slab Decomposition



     bravais-lattice index     =            4
     lattice parameter (alat)  =       5.2500  a.u.
     unit-cell volume          =     204.6420 (a.u.)^3
     number of atoms/cell      =            2
     number of atomic types    =            1
     number of electrons       =        32.00
     number of Kohn-Sham states=           20
     kinetic-energy cutoff     =      20.0000  Ry
     charge density cutoff     =      80.0000  Ry
     scf convergence threshold =      1.0E-06
     mixing beta               =       0.7000
     number of iterations used =            8  plain     mixing
     Exchange-correlation=  SLA  PW   PBX  PBC
                           (   1   4   3   4   0   0   0)

     celldm(1)=   5.250000  celldm(2)=   0.000000  celldm(3)=   1.633000
     celldm(4)=   0.000000  celldm(5)=   0.000000  celldm(6)=   0.000000

     crystal axes: (cart. coord. in units of alat)
               a(1) = (   1.000000   0.000000   0.000000 )  
               a(2) = (  -0.500000   0.866025   0.000000 )  
               a(3) = (   0.000000   0.000000   1.633000 )  

     reciprocal axes: (cart. coord. in units 2 pi/alat)
               b(1) = (  1.000000  0.577350 -0.000000 )  
               b(2) = (  0.000000  1.154701  0.000000 )  
               b(3) = (  0.000000 -0.000000  0.612370 )  


     PseudoPot. # 1 for Pt read from file:
     /Users/vinhtran/Documents/GitHub/DFT/Energy-Lattice-Constant/Platinum/pt_pbe_v1.4.uspp.F.UPF
     MD5 check sum: f09d6de1a584b5a045c4fc126da2d0c4
     Pseudo is Ultrasoft + core correction, Zval = 16.0
     Generated by new atomic code, or converted to UPF format
     Using radial grid of  985 points,  6 beta functions with: 
                l(1) =   0
                l(2) =   0
                l(3) =   1
                l(4) =   1
                l(5) =   2
                l(6) =   2
     Q(r) pseudized with  8 coefficients,  rinner =    1.300   1.300   1.300
                                                       1.300   1.300

     atomic species   valence    mass     pseudopotential
        Pt            16.00   195.08400     Pt( 1.00)

     24 Sym. Ops., with inversion, found (12 have fractional translation)



   Cartesian axes

     site n.     atom                  positions (alat units)
         1           Pt  tau(   1) = (   0.0000000   0.0000000   0.0000000  )
         2           Pt  tau(   2) = (   0.0000000   0.5773503   0.8165000  )

     number of k points=     6  Gaussian smearing, width (Ry)=  0.0800
                       cart. coord. in units 2pi/alat
        k(    1) = (   0.1250000   0.2165064   0.1530925), wk =   0.2500000
        k(    2) = (   0.1250000   0.5051815   0.1530925), wk =   0.5000000
        k(    3) = (   0.1250000  -0.3608439   0.1530925), wk =   0.5000000
        k(    4) = (   0.1250000  -0.0721688   0.1530925), wk =   0.2500000
        k(    5) = (   0.3750000   0.6495191   0.1530925), wk =   0.2500000
        k(    6) = (   0.3750000  -0.2165064   0.1530925), wk =   0.2500000

     Dense  grid:     2539 G-vectors     FFT dimensions: (  15,  15,  30)

     Estimated max dynamical RAM per process >      10.35 MB

     Check: negative core charge=   -0.000538

     Initial potential from superposition of free atoms

     starting charge      31.0000, renormalised to      32.0000

     negative rho (up, down):  3.603E-01 0.000E+00
     Starting wfcs are   24 randomized atomic wfcs

     total cpu time spent up to now is        0.4 secs

     Self-consistent Calculation

     iteration #  1     ecut=    20.00 Ry     beta= 0.70
     Davidson diagonalization with overlap
     ethr =  1.00E-02,  avg # of iterations =  2.8

     negative rho (up, down):  3.369E-01 0.000E+00

     total cpu time spent up to now is        0.4 secs

     total energy              =    -420.04427527 Ry
     estimated scf accuracy    <       1.73169439 Ry

     iteration #  2     ecut=    20.00 Ry     beta= 0.70
     Davidson diagonalization with overlap
     ethr =  5.41E-03,  avg # of iterations =  2.0

     negative rho (up, down):  3.545E-01 0.000E+00

     total cpu time spent up to now is        0.5 secs

     total energy              =    -420.55264922 Ry
     estimated scf accuracy    <       0.36249078 Ry

     iteration #  3     ecut=    20.00 Ry     beta= 0.70
     Davidson diagonalization with overlap
     ethr =  1.13E-03,  avg # of iterations =  2.0

     negative rho (up, down):  3.579E-01 0.000E+00

     total cpu time spent up to now is        0.6 secs

     total energy              =    -420.62799502 Ry
     estimated scf accuracy    <       0.00030404 Ry

     iteration #  4     ecut=    20.00 Ry     beta= 0.70
     Davidson diagonalization with overlap
     ethr =  9.50E-07,  avg # of iterations =  5.7

     negative rho (up, down):  3.579E-01 0.000E+00

     total cpu time spent up to now is        0.7 secs

     total energy              =    -420.62809618 Ry
     estimated scf accuracy    <       0.00000288 Ry

     iteration #  5     ecut=    20.00 Ry     beta= 0.70
     Davidson diagonalization with overlap
     ethr =  8.98E-09,  avg # of iterations =  3.0

     negative rho (up, down):  3.578E-01 0.000E+00

     total cpu time spent up to now is        0.8 secs

     End of self-consistent calculation

          k = 0.1250 0.2165 0.1531 (   313 PWs)   bands (ev):

   -30.9796 -30.8205 -30.8012 -30.7788 -30.7555 -30.7135  14.3304  16.4912
    17.6147  17.9282  18.5639  19.1099  19.4654  20.0548  20.7959  20.8304
    22.2444  24.3354  31.7644  37.1946

          k = 0.1250 0.5052 0.1531 (   311 PWs)   bands (ev):

   -31.0376 -30.9278 -30.8387 -30.7782 -30.7474 -30.7326  15.7290  16.4495
    17.1984  17.6109  18.5958  19.9045  20.3538  21.5957  22.0766  22.8587
    24.3412  26.9891  28.8773  31.6610

          k = 0.1250-0.3608 0.1531 (   306 PWs)   bands (ev):

   -30.8892 -30.8723 -30.8389 -30.7648 -30.7303 -30.6670  15.5381  16.8736
    16.9620  17.9928  18.5792  19.2901  19.3889  20.8165  21.6450  22.0656
    22.7768  25.8011  31.4757  34.2130

          k = 0.1250-0.0722 0.1531 (   313 PWs)   bands (ev):

   -30.9881 -30.7962 -30.7524 -30.7415 -30.7173 -30.7057  13.4049  15.6531
    18.3239  18.4489  18.5903  19.0391  19.4842  19.5557  20.5027  20.6430
    22.2965  23.1734  31.4765  37.3308

          k = 0.3750 0.6495 0.1531 (   312 PWs)   bands (ev):

   -30.9854 -30.9224 -30.9211 -30.7937 -30.7607 -30.7448  16.4305  17.1806
    17.3864  17.5011  18.4491  19.1219  20.0271  21.2514  22.0485  22.4902
    26.7231  26.9170  29.8197  31.5152

          k = 0.3750-0.2165 0.1531 (   307 PWs)   bands (ev):

   -30.9556 -30.8921 -30.8199 -30.7530 -30.7090 -30.6984  15.4159  16.2111
    17.1205  17.6478  19.2488  19.4214  20.6277  21.7070  22.0047  22.1164
    22.6437  26.0356  29.9849  33.1128

     the Fermi energy is    22.7350 ev

!    total energy              =    -420.62809699 Ry
     estimated scf accuracy    <       0.00000014 Ry
     smearing contrib. (-TS)   =      -0.08913553 Ry
     internal energy E=F+TS    =    -420.53896146 Ry

     The total energy is F=E-TS. E is the sum of the following terms:
     one-electron contribution =     -39.30520054 Ry
     hartree contribution      =      48.35492291 Ry
     xc contribution           =    -113.43072245 Ry
     ewald contribution        =    -316.15796139 Ry

     convergence has been achieved in   5 iterations

     Writing all to output data dir /Users/vinhtran/Documents/GitHub/DFT/Energy-Lattice-Constant/Platinum/pt.save/

     init_run     :      0.29s CPU      0.29s WALL (       1 calls)
     electrons    :      0.40s CPU      0.42s WALL (       1 calls)

     Called by init_run:
     wfcinit      :      0.02s CPU      0.02s WALL (       1 calls)
     potinit      :      0.01s CPU      0.01s WALL (       1 calls)
     hinit0       :      0.25s CPU      0.25s WALL (       1 calls)

     Called by electrons:
     c_bands      :      0.28s CPU      0.29s WALL (       5 calls)
     sum_band     :      0.08s CPU      0.09s WALL (       5 calls)
     v_of_rho     :      0.01s CPU      0.01s WALL (       6 calls)
     newd         :      0.03s CPU      0.04s WALL (       6 calls)
     mix_rho      :      0.00s CPU      0.00s WALL (       5 calls)

     Called by c_bands:
     init_us_2    :      0.01s CPU      0.01s WALL (      66 calls)
     init_us_2:cp :      0.01s CPU      0.01s WALL (      66 calls)
     cegterg      :      0.23s CPU      0.24s WALL (      30 calls)

     Called by *egterg:
     cdiaghg      :      0.04s CPU      0.04s WALL (     123 calls)
     h_psi        :      0.18s CPU      0.18s WALL (     129 calls)
     s_psi        :      0.00s CPU      0.00s WALL (     129 calls)
     g_psi        :      0.00s CPU      0.00s WALL (      93 calls)

     Called by h_psi:
     h_psi:calbec :      0.00s CPU      0.01s WALL (     129 calls)
     vloc_psi     :      0.17s CPU      0.17s WALL (     129 calls)
     add_vuspsi   :      0.00s CPU      0.01s WALL (     129 calls)

     General routines
     calbec       :      0.01s CPU      0.01s WALL (     159 calls)
     fft          :      0.00s CPU      0.00s WALL (      66 calls)
     ffts         :      0.00s CPU      0.00s WALL (       5 calls)
     fftw         :      0.09s CPU      0.09s WALL (    4186 calls)

     Parallel routines

     PWSCF        :      0.76s CPU      0.79s WALL


   This run was terminated on:  18: 5:17  15Mar2022            

=------------------------------------------------------------------------------=
   JOB DONE.
=------------------------------------------------------------------------------=
