
     Program PWSCF v.7.0 starts on 16Mar2022 at 17:28: 6 

     This program is part of the open-source Quantum ESPRESSO suite
     for quantum simulation of materials; please cite
         "P. Giannozzi et al., J. Phys.:Condens. Matter 21 395502 (2009);
         "P. Giannozzi et al., J. Phys.:Condens. Matter 29 465901 (2017);
         "P. Giannozzi et al., J. Chem. Phys. 152 154105 (2020);
          URL http://www.quantum-espresso.org", 
     in publications or presentations arising from this work. More details at
     http://www.quantum-espresso.org/quote

     Parallel version (MPI), running on     1 processors

     MPI processes distributed on     1 nodes
     0 MiB available memory on the printing compute node when the environment starts

     Reading input from cu.scf.in

     Current dimensions of program PWSCF are:
     Max number of different atomic species (ntypx) = 10
     Max number of k-points (npk) =  40000
     Max angular momentum in pseudopotentials (lmaxx) =  4

     Subspace diagonalization in iterative solution of the eigenvalue problem:
     a serial algorithm will be used


     G-vector sticks info
     --------------------
     sticks:   dense  smooth     PW     G-vecs:    dense   smooth      PW
     Sum         433     433    127                11753    11753    1985

     Using Slab Decomposition



     bravais-lattice index     =            4
     lattice parameter (alat)  =       7.2000  a.u.
     unit-cell volume          =     527.8546 (a.u.)^3
     number of atoms/cell      =            2
     number of atomic types    =            1
     number of electrons       =        38.00
     number of Kohn-Sham states=           23
     kinetic-energy cutoff     =      30.0000  Ry
     charge density cutoff     =     120.0000  Ry
     scf convergence threshold =      1.0E-06
     mixing beta               =       0.7000
     number of iterations used =            8  plain     mixing
     Exchange-correlation= SLA  PW   PBE  PBE
                           (   1   4   3   4   0   0   0)

     celldm(1)=   7.200000  celldm(2)=   0.000000  celldm(3)=   1.633000
     celldm(4)=   0.000000  celldm(5)=   0.000000  celldm(6)=   0.000000

     crystal axes: (cart. coord. in units of alat)
               a(1) = (   1.000000   0.000000   0.000000 )  
               a(2) = (  -0.500000   0.866025   0.000000 )  
               a(3) = (   0.000000   0.000000   1.633000 )  

     reciprocal axes: (cart. coord. in units 2 pi/alat)
               b(1) = (  1.000000  0.577350 -0.000000 )  
               b(2) = (  0.000000  1.154701  0.000000 )  
               b(3) = (  0.000000 -0.000000  0.612370 )  


     PseudoPot. # 1 for Cu read from file:
     /Users/vinhtran/Documents/GitHub/DFT/Energy-Lattice-Constant/Copper/Cu_pbe_v1.2.uspp.F.UPF
     MD5 check sum: 6e991ff952a84172a2a52a1c1e996048
     Pseudo is Ultrasoft + core correction, Zval = 19.0
     Generated by new atomic code, or converted to UPF format
     Using radial grid of  867 points,  6 beta functions with: 
                l(1) =   0
                l(2) =   0
                l(3) =   1
                l(4) =   1
                l(5) =   2
                l(6) =   2
     Q(r) pseudized with  8 coefficients,  rinner =    1.150   1.150   1.150
                                                       1.150   1.150

     atomic species   valence    mass     pseudopotential
        cu            19.00    63.54600     Cu( 1.00)

      4 Sym. Ops., with inversion, found ( 2 have fractional translation)



   Cartesian axes

     site n.     atom                  positions (alat units)
         1           cu  tau(   1) = (   0.0000000   0.0000000   0.0000000  )
         2           cu  tau(   2) = (   0.1666667   0.2886751   0.5443333  )

     number of k points=    68  Methfessel-Paxton smearing, width (Ry)=  0.0600
                       cart. coord. in units 2pi/alat
        k(    1) = (   0.0000000   0.0000000   0.0000000), wk =   0.0092593
        k(    2) = (   0.0000000   0.0000000   0.1020616), wk =   0.0185185
        k(    3) = (   0.0000000   0.0000000   0.2041233), wk =   0.0185185
        k(    4) = (   0.0000000   0.0000000  -0.3061849), wk =   0.0092593
        k(    5) = (   0.0000000   0.1924501   0.0000000), wk =   0.0370370
        k(    6) = (   0.0000000   0.1924501   0.1020616), wk =   0.0370370
        k(    7) = (   0.0000000   0.1924501   0.2041233), wk =   0.0370370
        k(    8) = (   0.0000000   0.1924501  -0.3061849), wk =   0.0370370
        k(    9) = (   0.0000000   0.3849002   0.0000000), wk =   0.0370370
        k(   10) = (   0.0000000   0.3849002   0.1020616), wk =   0.0370370
        k(   11) = (   0.0000000   0.3849002   0.2041233), wk =   0.0370370
        k(   12) = (   0.0000000   0.3849002  -0.3061849), wk =   0.0370370
        k(   13) = (   0.0000000  -0.5773503   0.0000000), wk =   0.0185185
        k(   14) = (   0.0000000  -0.5773503   0.1020616), wk =   0.0370370
        k(   15) = (   0.0000000  -0.5773503   0.2041233), wk =   0.0370370
        k(   16) = (   0.0000000  -0.5773503  -0.3061849), wk =   0.0185185
        k(   17) = (   0.1666667   0.2886751   0.0000000), wk =   0.0185185
        k(   18) = (   0.1666667   0.2886751   0.1020616), wk =   0.0185185
        k(   19) = (   0.1666667   0.2886751   0.2041233), wk =   0.0185185
        k(   20) = (   0.1666667   0.2886751  -0.3061849), wk =   0.0185185
        k(   21) = (   0.1666667   0.4811252   0.0000000), wk =   0.0370370
        k(   22) = (   0.1666667   0.4811252   0.1020616), wk =   0.0370370
        k(   23) = (   0.1666667   0.4811252   0.2041233), wk =   0.0370370
        k(   24) = (   0.1666667   0.4811252  -0.3061849), wk =   0.0370370
        k(   25) = (   0.3333333   0.5773503   0.0000000), wk =   0.0185185
        k(   26) = (   0.3333333   0.5773503   0.1020616), wk =   0.0185185
        k(   27) = (   0.3333333   0.5773503   0.2041233), wk =   0.0185185
        k(   28) = (   0.3333333   0.5773503  -0.3061849), wk =   0.0185185
        k(   29) = (  -0.1666667   0.0962250   0.0000000), wk =   0.0185185
        k(   30) = (  -0.1666667   0.0962250   0.1020616), wk =   0.0370370
        k(   31) = (  -0.1666667  -0.0962250   0.1020616), wk =   0.0370370
        k(   32) = (  -0.1666667   0.0962250   0.2041233), wk =   0.0370370
        k(   33) = (  -0.1666667  -0.0962250   0.2041233), wk =   0.0370370
        k(   34) = (  -0.1666667   0.0962250  -0.3061849), wk =   0.0185185
        k(   35) = (  -0.3333333   0.1924501   0.0000000), wk =   0.0185185
        k(   36) = (  -0.3333333   0.1924501   0.1020616), wk =   0.0370370
        k(   37) = (  -0.3333333  -0.1924501   0.1020616), wk =   0.0370370
        k(   38) = (  -0.3333333   0.1924501   0.2041233), wk =   0.0370370
        k(   39) = (  -0.3333333  -0.1924501   0.2041233), wk =   0.0370370
        k(   40) = (  -0.3333333   0.1924501  -0.3061849), wk =   0.0185185
        k(   41) = (   0.5000000  -0.2886751   0.0000000), wk =   0.0092593
        k(   42) = (   0.5000000  -0.2886751   0.1020616), wk =   0.0185185
        k(   43) = (   0.5000000  -0.2886751   0.2041233), wk =   0.0185185
        k(   44) = (   0.5000000  -0.2886751  -0.3061849), wk =   0.0092593
        k(   45) = (  -0.1666667   0.2886751   0.0000000), wk =   0.0370370
        k(   46) = (  -0.1666667   0.2886751   0.1020616), wk =   0.0370370
        k(   47) = (  -0.3333333  -0.0000000   0.1020616), wk =   0.0370370
        k(   48) = (  -0.1666667  -0.2886751   0.1020616), wk =   0.0185185
        k(   49) = (  -0.1666667   0.2886751   0.2041233), wk =   0.0370370
        k(   50) = (  -0.3333333  -0.0000000   0.2041233), wk =   0.0370370
        k(   51) = (  -0.1666667  -0.2886751   0.2041233), wk =   0.0185185
        k(   52) = (  -0.1666667   0.2886751  -0.3061849), wk =   0.0370370
        k(   53) = (  -0.3333333   0.3849002   0.0000000), wk =   0.0370370
        k(   54) = (   0.5000000   0.0962250   0.0000000), wk =   0.0370370
        k(   55) = (  -0.3333333   0.3849002   0.1020616), wk =   0.0370370
        k(   56) = (   0.5000000   0.0962250   0.1020616), wk =   0.0370370
        k(   57) = (  -0.5000000  -0.0962250   0.1020616), wk =   0.0370370
        k(   58) = (   0.3333333  -0.3849002   0.1020616), wk =   0.0370370
        k(   59) = (  -0.1666667  -0.4811252   0.1020616), wk =   0.0370370
        k(   60) = (  -0.3333333   0.3849002   0.2041233), wk =   0.0370370
        k(   61) = (   0.5000000   0.0962250   0.2041233), wk =   0.0370370
        k(   62) = (  -0.5000000  -0.0962250   0.2041233), wk =   0.0370370
        k(   63) = (   0.3333333  -0.3849002   0.2041233), wk =   0.0370370
        k(   64) = (  -0.1666667  -0.4811252   0.2041233), wk =   0.0370370
        k(   65) = (  -0.3333333   0.3849002  -0.3061849), wk =   0.0370370
        k(   66) = (   0.5000000   0.0962250  -0.3061849), wk =   0.0370370
        k(   67) = (  -0.3333333   0.5773503   0.1020616), wk =   0.0185185
        k(   68) = (  -0.3333333   0.5773503   0.2041233), wk =   0.0185185

     Dense  grid:    11753 G-vectors     FFT dimensions: (  27,  27,  45)

     Estimated max dynamical RAM per process >      78.02 MB

     Check: negative core charge=   -0.000017

     Initial potential from superposition of free atoms

     starting charge      36.0000, renormalised to      38.0000

     negative rho (up, down):  6.293E-05 0.000E+00
     Starting wfcs are   26 randomized atomic wfcs

     total cpu time spent up to now is        1.7 secs

     Self-consistent Calculation

     iteration #  1     ecut=    30.00 Ry     beta= 0.70
     Davidson diagonalization with overlap
     ethr =  1.00E-02,  avg # of iterations =  4.0

     total cpu time spent up to now is        6.8 secs

     total energy              =    -787.31727931 Ry
     estimated scf accuracy    <      26.51502141 Ry

     iteration #  2     ecut=    30.00 Ry     beta= 0.70
     Davidson diagonalization with overlap
     ethr =  1.00E-02,  avg # of iterations =  3.1

     total cpu time spent up to now is       12.0 secs

     total energy              =    -806.91249190 Ry
     estimated scf accuracy    <      50.29702334 Ry

     iteration #  3     ecut=    30.00 Ry     beta= 0.70
     Davidson diagonalization with overlap
     ethr =  1.00E-02,  avg # of iterations =  2.0

     total cpu time spent up to now is       16.4 secs

     total energy              =    -807.81490992 Ry
     estimated scf accuracy    <       9.64159182 Ry

     iteration #  4     ecut=    30.00 Ry     beta= 0.70
     Davidson diagonalization with overlap
     ethr =  1.00E-02,  avg # of iterations =  2.0

     total cpu time spent up to now is       20.2 secs

     total energy              =    -807.29760918 Ry
     estimated scf accuracy    <       3.72402679 Ry

     iteration #  5     ecut=    30.00 Ry     beta= 0.70
     Davidson diagonalization with overlap
     ethr =  9.80E-03,  avg # of iterations =  1.1

     total cpu time spent up to now is       23.4 secs

     total energy              =    -807.27565522 Ry
     estimated scf accuracy    <       1.39557642 Ry

     iteration #  6     ecut=    30.00 Ry     beta= 0.70
     Davidson diagonalization with overlap
     ethr =  3.67E-03,  avg # of iterations =  1.0

     total cpu time spent up to now is       26.6 secs

     total energy              =    -807.15876285 Ry
     estimated scf accuracy    <       0.84165443 Ry

     iteration #  7     ecut=    30.00 Ry     beta= 0.70
     Davidson diagonalization with overlap
     ethr =  2.21E-03,  avg # of iterations =  1.0

     total cpu time spent up to now is       29.9 secs

     total energy              =    -807.12894341 Ry
     estimated scf accuracy    <       0.32328385 Ry

     iteration #  8     ecut=    30.00 Ry     beta= 0.70
     Davidson diagonalization with overlap
     ethr =  8.51E-04,  avg # of iterations =  2.1

     total cpu time spent up to now is       33.5 secs

     total energy              =    -807.13995229 Ry
     estimated scf accuracy    <       0.19070908 Ry

     iteration #  9     ecut=    30.00 Ry     beta= 0.70
     Davidson diagonalization with overlap
     ethr =  5.02E-04,  avg # of iterations =  1.1
     Minimization algorithm failed to find Fermi energy: reverting to bisection
     Possible cause: smearing is larger than the electronic band-gap.

     total cpu time spent up to now is       36.7 secs

     total energy              =    -807.15398833 Ry
     estimated scf accuracy    <       0.17771110 Ry

     iteration # 10     ecut=    30.00 Ry     beta= 0.70
     Davidson diagonalization with overlap
     ethr =  4.68E-04,  avg # of iterations =  1.2

     total cpu time spent up to now is       40.0 secs

     total energy              =    -807.07689819 Ry
     estimated scf accuracy    <       0.18742441 Ry

     iteration # 11     ecut=    30.00 Ry     beta= 0.70
     Davidson diagonalization with overlap
     ethr =  4.68E-04,  avg # of iterations =  2.4

     total cpu time spent up to now is       43.8 secs

     total energy              =    -807.11939264 Ry
     estimated scf accuracy    <       0.09623715 Ry

     iteration # 12     ecut=    30.00 Ry     beta= 0.70
     Davidson diagonalization with overlap
     ethr =  2.53E-04,  avg # of iterations =  1.1

     total cpu time spent up to now is       47.1 secs

     total energy              =    -807.11657409 Ry
     estimated scf accuracy    <       0.03272437 Ry

     iteration # 13     ecut=    30.00 Ry     beta= 0.70
     Davidson diagonalization with overlap
     ethr =  8.61E-05,  avg # of iterations =  1.3

     total cpu time spent up to now is       50.3 secs

     total energy              =    -807.11834809 Ry
     estimated scf accuracy    <       0.00280436 Ry

     iteration # 14     ecut=    30.00 Ry     beta= 0.70
     Davidson diagonalization with overlap
     ethr =  7.38E-06,  avg # of iterations =  3.9

     total cpu time spent up to now is       54.7 secs

     total energy              =    -807.16097466 Ry
     estimated scf accuracy    <       0.01804584 Ry

     iteration # 15     ecut=    30.00 Ry     beta= 0.70
     Davidson diagonalization with overlap
     ethr =  7.38E-06,  avg # of iterations =  5.2

     total cpu time spent up to now is       60.8 secs

     total energy              =    -807.27653119 Ry
     estimated scf accuracy    <       0.33052065 Ry

     iteration # 16     ecut=    30.00 Ry     beta= 0.70
     Davidson diagonalization with overlap
     ethr =  7.38E-06,  avg # of iterations =  5.1

     total cpu time spent up to now is       66.3 secs

     total energy              =    -807.13321608 Ry
     estimated scf accuracy    <       0.67761193 Ry

     iteration # 17     ecut=    30.00 Ry     beta= 0.70
     Davidson diagonalization with overlap
     ethr =  7.38E-06,  avg # of iterations =  5.1

     total cpu time spent up to now is       72.3 secs

     total energy              =    -807.08572448 Ry
     estimated scf accuracy    <       0.19454523 Ry

     iteration # 18     ecut=    30.00 Ry     beta= 0.70
     Davidson diagonalization with overlap
     ethr =  7.38E-06,  avg # of iterations =  6.1
     Minimization algorithm failed to find Fermi energy: reverting to bisection
     Possible cause: smearing is larger than the electronic band-gap.

     total cpu time spent up to now is       78.8 secs

     total energy              =    -807.11397088 Ry
     estimated scf accuracy    <       0.08779850 Ry

     iteration # 19     ecut=    30.00 Ry     beta= 0.70
     Davidson diagonalization with overlap
     ethr =  7.38E-06,  avg # of iterations =  3.8

     total cpu time spent up to now is       83.4 secs

     total energy              =    -807.12123596 Ry
     estimated scf accuracy    <       0.00466227 Ry

     iteration # 20     ecut=    30.00 Ry     beta= 0.70
     Davidson diagonalization with overlap
     ethr =  7.38E-06,  avg # of iterations =  2.3

     total cpu time spent up to now is       87.3 secs

     total energy              =    -807.12716541 Ry
     estimated scf accuracy    <       0.03231047 Ry

     iteration # 21     ecut=    30.00 Ry     beta= 0.70
     Davidson diagonalization with overlap
     ethr =  7.38E-06,  avg # of iterations =  3.2
     Minimization algorithm failed to find Fermi energy: reverting to bisection
     Possible cause: smearing is larger than the electronic band-gap.

     total cpu time spent up to now is       91.5 secs

     total energy              =    -807.11931539 Ry
     estimated scf accuracy    <       0.09881028 Ry

     iteration # 22     ecut=    30.00 Ry     beta= 0.70
     Davidson diagonalization with overlap
     ethr =  7.38E-06,  avg # of iterations =  3.1

     total cpu time spent up to now is       95.5 secs

     total energy              =    -807.11446304 Ry
     estimated scf accuracy    <       0.02979507 Ry

     iteration # 23     ecut=    30.00 Ry     beta= 0.70
     Davidson diagonalization with overlap
     ethr =  7.38E-06,  avg # of iterations =  4.0

     total cpu time spent up to now is      100.1 secs

     total energy              =    -807.11820814 Ry
     estimated scf accuracy    <       0.00112376 Ry

     iteration # 24     ecut=    30.00 Ry     beta= 0.70
     Davidson diagonalization with overlap
     ethr =  2.96E-06,  avg # of iterations =  1.5

     total cpu time spent up to now is      103.5 secs

     total energy              =    -807.11837411 Ry
     estimated scf accuracy    <       0.00009479 Ry

     iteration # 25     ecut=    30.00 Ry     beta= 0.70
     Davidson diagonalization with overlap
     ethr =  2.49E-07,  avg # of iterations =  2.0

     total cpu time spent up to now is      107.2 secs

     total energy              =    -807.11837723 Ry
     estimated scf accuracy    <       0.00002733 Ry

     iteration # 26     ecut=    30.00 Ry     beta= 0.70
     Davidson diagonalization with overlap
     ethr =  7.19E-08,  avg # of iterations =  2.1

     total cpu time spent up to now is      111.0 secs

     total energy              =    -807.11837166 Ry
     estimated scf accuracy    <       0.00008655 Ry

     iteration # 27     ecut=    30.00 Ry     beta= 0.70
     Davidson diagonalization with overlap
     ethr =  7.19E-08,  avg # of iterations =  2.0

     total cpu time spent up to now is      114.5 secs

     End of self-consistent calculation

          k = 0.0000 0.0000 0.0000 (  1473 PWs)   bands (ev):

  -109.0327-109.0280 -66.5853 -66.5338 -66.3972 -66.3957 -66.3786 -66.3698
    -1.8385   0.2097   0.2617   0.5260   0.7277   0.8594   0.9258   0.9286
     1.0321   1.0790   1.1513   2.5219   3.5750  10.9077  11.0604

          k = 0.0000 0.0000 0.1021 (  1467 PWs)   bands (ev):

  -109.0325-109.0280 -66.5869 -66.5337 -66.3977 -66.3944 -66.3763 -66.3694
    -1.7750   0.1988   0.2554   0.5155   0.7314   0.8673   0.9132   0.9303
     1.0363   1.0864   1.1535   1.8777   4.4863  10.9370  11.1107

          k = 0.0000 0.0000 0.2041 (  1484 PWs)   bands (ev):

  -109.0335-109.0288 -66.5892 -66.5369 -66.3996 -66.3959 -66.3773 -66.3702
    -1.6258   0.1595   0.2380   0.5057   0.7270   0.7908   0.8597   0.9273
     1.0281   1.0741   1.1271   1.3087   5.9134  10.2926  11.1082

          k = 0.0000 0.0000-0.3062 (  1496 PWs)   bands (ev):

  -109.0341-109.0293 -66.5914 -66.5396 -66.4001 -66.3972 -66.3771 -66.3700
    -1.5346   0.1181   0.2225   0.5012   0.6533   0.7320   0.8596   0.9244
     1.0325   1.0623   1.0923   1.1996   6.9201   9.1166  11.1326

          k = 0.0000 0.1925 0.0000 (  1457 PWs)   bands (ev):

  -109.0321-109.0270 -66.5854 -66.5345 -66.3975 -66.3916 -66.3739 -66.3684
    -1.4786   0.2513   0.3305   0.4980   0.7374   0.8434   0.9573   0.9694
     1.0354   1.0930   1.1040   2.8146   4.0258   8.1325  10.0737

          k = 0.0000 0.1925 0.1021 (  1453 PWs)   bands (ev):

  -109.0317-109.0271 -66.5858 -66.5342 -66.3958 -66.3912 -66.3734 -66.3686
    -1.4121   0.2421   0.3290   0.4970   0.7314   0.8421   0.9450   0.9706
     1.0422   1.0928   1.1149   2.2075   4.9064   8.1796  10.0981

          k = 0.0000 0.1925 0.2041 (  1469 PWs)   bands (ev):

  -109.0327-109.0279 -66.5879 -66.5359 -66.3987 -66.3926 -66.3745 -66.3697
    -1.2667   0.2208   0.3038   0.4898   0.6974   0.8314   0.8970   0.9696
     1.0281   1.0863   1.1365   1.5646   6.3029   8.2910  10.0654

          k = 0.0000 0.1925-0.3062 (  1468 PWs)   bands (ev):

  -109.0327-109.0278 -66.5878 -66.5351 -66.3988 -66.3927 -66.3753 -66.3692
    -1.1854   0.2204   0.2931   0.4916   0.6728   0.8359   0.8678   0.9631
     1.0410   1.0844   1.1662   1.3209   7.2266   8.3550   9.5587

          k = 0.0000 0.3849 0.0000 (  1463 PWs)   bands (ev):

  -109.0322-109.0282 -66.5867 -66.5351 -66.3984 -66.3952 -66.3737 -66.3698
    -0.5622   0.2805   0.4568   0.5011   0.7143   0.8715   0.9792   1.0185
     1.0482   1.0769   1.1093   3.6493   4.9136   5.2941   8.4112

          k = 0.0000 0.3849 0.1021 (  1465 PWs)   bands (ev):

  -109.0325-109.0281 -66.5870 -66.5358 -66.3995 -66.3945 -66.3738 -66.3697
    -0.5033   0.2546   0.4562   0.5164   0.6902   0.8794   0.9841   1.0106
     1.0612   1.0738   1.1085   3.1830   4.9646   5.9264   8.1067

          k = 0.0000 0.3849 0.2041 (  1463 PWs)   bands (ev):

  -109.0326-109.0281 -66.5871 -66.5362 -66.3985 -66.3930 -66.3746 -66.3707
    -0.4089   0.2344   0.4540   0.5306   0.6957   0.8929   0.9864   1.0189
     1.0676   1.0948   1.1219   2.5479   5.0652   6.6297   8.1581

          k = 0.0000 0.3849-0.3062 (  1466 PWs)   bands (ev):

  -109.0330-109.0282 -66.5870 -66.5362 -66.3994 -66.3938 -66.3758 -66.3710
    -0.3804   0.2426   0.4503   0.5140   0.7221   0.8993   0.9811   1.0261
     1.0699   1.0947   1.1752   2.2470   5.1283   6.6320   8.8875

          k = 0.0000-0.5774 0.0000 (  1464 PWs)   bands (ev):

  -109.0324-109.0285 -66.5866 -66.5358 -66.3982 -66.3952 -66.3743 -66.3713
    -0.1112   0.3177   0.4961   0.5114   0.8898   0.9106   0.9396   1.0312
     1.0836   1.0981   1.9186   2.3982   5.3402   5.7452   7.1303

          k = 0.0000-0.5774 0.1021 (  1474 PWs)   bands (ev):

  -109.0328-109.0293 -66.5880 -66.5364 -66.3990 -66.3959 -66.3753 -66.3732
    -0.1104   0.3004   0.4812   0.5108   0.8881   0.9305   0.9422   1.0209
     1.0821   1.0996   1.9485   2.4793   4.7481   5.4893   7.7271

          k = 0.0000-0.5774 0.2041 (  1484 PWs)   bands (ev):

  -109.0333-109.0302 -66.5901 -66.5371 -66.4010 -66.3975 -66.3755 -66.3745
    -0.1097   0.2676   0.4715   0.5113   0.8884   0.9382   0.9793   1.0179
     1.0810   1.1015   2.0379   2.6720   4.0631   4.8822   8.6661

          k = 0.0000-0.5774-0.3062 (  1464 PWs)   bands (ev):

  -109.0325-109.0289 -66.5872 -66.5343 -66.4003 -66.3946 -66.3745 -66.3739
    -0.0947   0.2694   0.4835   0.5147   0.9042   0.9542   1.0145   1.0252
     1.0848   1.1083   2.1074   2.7930   3.7872   4.5867   8.8333

          k = 0.1667 0.2887 0.0000 (  1458 PWs)   bands (ev):

  -109.0322-109.0276 -66.5871 -66.5349 -66.3977 -66.3948 -66.3742 -66.3665
    -0.8114   0.2719   0.4592   0.4953   0.7505   0.8089   0.9720   0.9798
     1.0148   1.0876   1.0913   3.4033   4.8422   6.1203   7.8391

          k = 0.1667 0.2887 0.1021 (  1467 PWs)   bands (ev):

  -109.0325-109.0283 -66.5882 -66.5371 -66.3970 -66.3941 -66.3746 -66.3699
    -0.7468   0.2416   0.4429   0.5025   0.7442   0.8031   0.9570   0.9765
     1.0336   1.0785   1.0860   2.8753   5.6107   6.1543   7.8966

          k = 0.1667 0.2887 0.2041 (  1461 PWs)   bands (ev):

  -109.0325-109.0277 -66.5868 -66.5363 -66.3977 -66.3921 -66.3750 -66.3694
    -0.6250   0.2256   0.4451   0.5120   0.7294   0.7957   0.9534   0.9842
     1.0794   1.0832   1.1073   2.2240   6.1750   6.8555   8.0738

          k = 0.1667 0.2887-0.3062 (  1478 PWs)   bands (ev):

  -109.0340-109.0282 -66.5874 -66.5384 -66.4007 -66.3941 -66.3780 -66.3699
    -0.5790   0.2349   0.4392   0.5056   0.7195   0.7755   0.9534   0.9699
     1.0673   1.0745   1.1615   1.9275   6.2146   7.3677   8.2190

          k = 0.1667 0.4811 0.0000 (  1463 PWs)   bands (ev):

  -109.0328-109.0282 -66.5868 -66.5362 -66.3993 -66.3945 -66.3752 -66.3698
    -0.1308   0.3586   0.4307   0.6238   0.8356   0.9041   0.9292   0.9469
     1.0664   1.1002   1.5478   3.3327   5.0500   6.0689   6.5260

          k = 0.1667 0.4811 0.1021 (  1467 PWs)   bands (ev):

  -109.0331-109.0285 -66.5866 -66.5364 -66.3999 -66.3962 -66.3757 -66.3699
    -0.1166   0.3397   0.4250   0.6260   0.8447   0.9025   0.9304   0.9621
     1.0760   1.0946   1.5660   3.3563   4.5869   6.1778   6.5521

          k = 0.1667 0.4811 0.2041 (  1462 PWs)   bands (ev):

  -109.0328-109.0283 -66.5868 -66.5359 -66.3998 -66.3952 -66.3748 -66.3698
    -0.1024   0.3255   0.4253   0.6268   0.8812   0.8989   0.9493   0.9816
     1.0838   1.1031   1.6651   3.3102   4.1071   5.8073   6.7161

          k = 0.1667 0.4811-0.3062 (  1464 PWs)   bands (ev):

  -109.0330-109.0282 -66.5874 -66.5355 -66.4006 -66.3940 -66.3760 -66.3699
    -0.1026   0.3269   0.4217   0.6231   0.8872   0.9092   0.9483   0.9830
     1.0834   1.1093   1.7585   3.1833   4.0087   5.5932   6.8427

          k = 0.3333 0.5774 0.0000 (  1458 PWs)   bands (ev):

  -109.0328-109.0284 -66.5877 -66.5362 -66.3995 -66.3938 -66.3748 -66.3705
    -0.0562   0.3666   0.3999   0.7186   0.7611   0.9251   0.9515   1.0420
     1.0866   1.0977   2.2398   3.4606   4.3006   6.0931   6.5555

          k = 0.3333 0.5774 0.1021 (  1464 PWs)   bands (ev):

  -109.0331-109.0286 -66.5884 -66.5362 -66.4001 -66.3942 -66.3754 -66.3711
    -0.0651   0.3648   0.3885   0.7254   0.7385   0.9386   0.9707   1.0560
     1.0898   1.0904   2.2794   3.5126   4.3737   5.4369   6.5188

          k = 0.3333 0.5774 0.2041 (  1461 PWs)   bands (ev):

  -109.0330-109.0284 -66.5884 -66.5355 -66.3997 -66.3942 -66.3760 -66.3703
    -0.0520   0.3609   0.3814   0.7327   0.7329   0.9357   0.9817   1.0806
     1.0880   1.0992   2.3846   3.6160   4.5734   4.8373   5.9499

          k = 0.3333 0.5774-0.3062 (  1440 PWs)   bands (ev):

  -109.0317-109.0273 -66.5852 -66.5327 -66.3972 -66.3924 -66.3744 -66.3689
    -0.0268   0.3734   0.3898   0.7395   0.7536   0.9289   0.9834   1.0913
     1.0998   1.1169   2.4551   3.6434   4.6808   4.7177   5.6530

          k =-0.1667 0.0962 0.0000 (  1457 PWs)   bands (ev):

  -109.0311-109.0280 -66.5885 -66.5320 -66.3953 -66.3952 -66.3728 -66.3675
    -1.4950   0.2427   0.2804   0.5018   0.7352   0.8775   0.9439   0.9885
     1.0455   1.0923   1.1606   2.8104   3.9841   8.2856  10.1262

          k =-0.1667 0.0962 0.1021 (  1453 PWs)   bands (ev):

  -109.0314-109.0274 -66.5854 -66.5329 -66.3957 -66.3935 -66.3729 -66.3686
    -1.4332   0.2536   0.2736   0.5019   0.7339   0.8662   0.9413   0.9839
     1.0480   1.0930   1.1711   2.1881   4.8612   8.3552  10.1700

          k =-0.1667-0.0962 0.1021 (  1453 PWs)   bands (ev):

  -109.0318-109.0269 -66.5844 -66.5321 -66.3979 -66.3929 -66.3744 -66.3677
    -1.4214   0.2642   0.3299   0.4996   0.7363   0.8493   0.9540   0.9565
     1.0560   1.0826   1.1018   2.2178   4.8492   8.2184  10.1224

          k =-0.1667 0.0962 0.2041 (  1469 PWs)   bands (ev):

  -109.0323-109.0283 -66.5877 -66.5352 -66.3977 -66.3947 -66.3737 -66.3703
    -1.2886   0.2356   0.2586   0.4975   0.7353   0.7985   0.9428   0.9652
     1.0301   1.0941   1.1573   1.5357   6.2709   8.5241  10.2031

          k =-0.1667-0.0962 0.2041 (  1469 PWs)   bands (ev):

  -109.0330-109.0276 -66.5868 -66.5353 -66.3996 -66.3935 -66.3758 -66.3684
    -1.2795   0.2416   0.3072   0.4919   0.7120   0.8424   0.8974   0.9573
     1.0545   1.0801   1.1035   1.5650   6.2156   8.3978  10.1127

          k =-0.1667 0.0962-0.3062 (  1468 PWs)   bands (ev):

  -109.0324-109.0281 -66.5876 -66.5360 -66.3986 -66.3947 -66.3729 -66.3692
    -1.2008   0.2226   0.2525   0.5148   0.7277   0.7360   0.9546   0.9563
     1.0227   1.0998   1.1543   1.3248   7.2632   8.6426   9.3985

          k =-0.3333 0.1925 0.0000 (  1463 PWs)   bands (ev):

  -109.0317-109.0288 -66.5884 -66.5320 -66.3949 -66.3949 -66.3766 -66.3723
    -0.6636   0.2860   0.3181   0.4464   0.8763   0.9072   0.9914   1.0575
     1.0627   1.0740   1.1815   3.7608   4.8243   5.2566   8.4492

          k =-0.3333 0.1925 0.1021 (  1465 PWs)   bands (ev):

  -109.0322-109.0285 -66.5879 -66.5345 -66.3964 -66.3946 -66.3754 -66.3714
    -0.6177   0.2856   0.3154   0.4518   0.8670   0.9077   1.0058   1.0354
     1.0620   1.0867   1.1820   3.1669   5.0249   5.9526   8.0409

          k =-0.3333-0.1925 0.1021 (  1465 PWs)   bands (ev):

  -109.0325-109.0282 -66.5880 -66.5360 -66.3991 -66.3937 -66.3739 -66.3696
    -0.5382   0.2835   0.4507   0.4912   0.7335   0.8910   0.9733   1.0309
     1.0590   1.0814   1.1104   3.1875   4.7719   6.1416   8.0086

          k =-0.3333 0.1925 0.2041 (  1463 PWs)   bands (ev):

  -109.0326-109.0281 -66.5857 -66.5357 -66.3980 -66.3940 -66.3751 -66.3717
    -0.5099   0.2905   0.3148   0.4674   0.8491   0.9048   1.0101   1.0367
     1.0526   1.1099   1.1868   2.4832   5.2272   7.2605   7.4337

          k =-0.3333-0.1925 0.2041 (  1463 PWs)   bands (ev):

  -109.0326-109.0281 -66.5863 -66.5342 -66.4000 -66.3945 -66.3749 -66.3703
    -0.4471   0.2734   0.4567   0.5031   0.7395   0.9040   0.9743   1.0258
     1.0784   1.0968   1.1289   2.5213   4.9625   6.8069   8.0217

          k =-0.3333 0.1925-0.3062 (  1466 PWs)   bands (ev):

  -109.0327-109.0285 -66.5875 -66.5359 -66.3989 -66.3954 -66.3742 -66.3711
    -0.4480   0.2773   0.3113   0.4822   0.8407   0.9062   1.0091   1.0362
     1.0477   1.1255   1.1808   2.2082   5.3468   7.1309   8.1693

          k = 0.5000-0.2887 0.0000 (  1464 PWs)   bands (ev):

  -109.0322-109.0287 -66.5876 -66.5344 -66.3966 -66.3958 -66.3751 -66.3719
    -0.2647   0.2805   0.3296   0.4539   0.9482   0.9983   1.0500   1.0632
     1.0862   1.1916   1.8054   2.8591   4.8841   6.0676   6.6497

          k = 0.5000-0.2887 0.1021 (  1474 PWs)   bands (ev):

  -109.0328-109.0292 -66.5894 -66.5355 -66.4000 -66.3958 -66.3746 -66.3726
    -0.2413   0.2812   0.3290   0.4400   0.9337   0.9987   1.0286   1.0675
     1.0836   1.1795   1.8255   2.9552   4.2860   6.2007   6.8588

          k = 0.5000-0.2887 0.2041 (  1484 PWs)   bands (ev):

  -109.0343-109.0292 -66.5883 -66.5380 -66.4015 -66.3950 -66.3782 -66.3745
    -0.1916   0.2850   0.3296   0.4365   0.8738   0.9993   1.0108   1.0758
     1.0760   1.1850   1.8788   3.1794   3.6084   5.5376   8.0123

          k = 0.5000-0.2887-0.3062 (  1464 PWs)   bands (ev):

  -109.0332-109.0282 -66.5848 -66.5360 -66.3990 -66.3943 -66.3768 -66.3736
    -0.1555   0.2907   0.3534   0.4475   0.8723   0.9997   1.0082   1.0813
     1.0937   1.1980   1.9244   3.3208   3.3363   5.2375   8.5112

          k =-0.1667 0.2887 0.0000 (  1458 PWs)   bands (ev):

  -109.0319-109.0279 -66.5873 -66.5338 -66.3971 -66.3931 -66.3740 -66.3700
    -0.8620   0.2782   0.3659   0.4760   0.6964   0.8910   0.9898   1.0296
     1.0538   1.0945   1.1358   3.4284   4.7640   6.5273   7.2390

          k =-0.1667 0.2887 0.1021 (  1467 PWs)   bands (ev):

  -109.0325-109.0283 -66.5877 -66.5355 -66.3973 -66.3937 -66.3753 -66.3715
    -0.8008   0.2670   0.3607   0.4828   0.6922   0.8662   0.9842   1.0147
     1.0485   1.1037   1.1273   2.8543   5.5960   6.5617   7.3077

          k =-0.3333-0.0000 0.1021 (  1467 PWs)   bands (ev):

  -109.0327-109.0281 -66.5866 -66.5337 -66.4001 -66.3939 -66.3756 -66.3710
    -0.8158   0.2795   0.3606   0.4774   0.6785   0.9039   0.9772   1.0420
     1.0450   1.0775   1.1461   2.8493   5.4743   6.6762   7.3096

          k =-0.1667-0.2887 0.1021 (  1467 PWs)   bands (ev):

  -109.0329-109.0279 -66.5856 -66.5339 -66.4013 -66.3956 -66.3758 -66.3688
    -0.7739   0.2849   0.4561   0.4952   0.7385   0.7946   0.9599   0.9688
     1.0385   1.0908   1.0940   2.8837   5.3314   6.4200   7.9269

          k =-0.1667 0.2887 0.2041 (  1461 PWs)   bands (ev):

  -109.0326-109.0276 -66.5858 -66.5362 -66.3975 -66.3933 -66.3747 -66.3699
    -0.6760   0.2562   0.3637   0.5101   0.6792   0.8631   0.9850   1.0118
     1.0521   1.1058   1.1541   2.1819   6.6964   6.9001   7.4466

          k =-0.3333-0.0000 0.2041 (  1461 PWs)   bands (ev):

  -109.0322-109.0280 -66.5865 -66.5337 -66.3989 -66.3938 -66.3738 -66.3708
    -0.6949   0.2709   0.3568   0.5042   0.6725   0.9124   0.9770   1.0322
     1.0503   1.0917   1.1680   2.1593   6.4084   7.1395   7.5552

          k =-0.1667-0.2887 0.2041 (  1461 PWs)   bands (ev):

  -109.0327-109.0275 -66.5853 -66.5340 -66.3998 -66.3939 -66.3760 -66.3685
    -0.6602   0.2861   0.4488   0.5083   0.7374   0.7892   0.9651   0.9674
     1.0873   1.0882   1.1108   2.2068   5.9273   7.1539   8.1153

          k =-0.1667 0.2887-0.3062 (  1478 PWs)   bands (ev):

  -109.0336-109.0287 -66.5881 -66.5379 -66.4004 -66.3952 -66.3758 -66.3711
    -0.6178   0.2496   0.3463   0.5164   0.6544   0.8786   0.9719   1.0091
     1.0447   1.0956   1.1721   1.8895   6.7391   7.4659   7.7953

          k =-0.3333 0.3849 0.0000 (  1463 PWs)   bands (ev):

  -109.0325-109.0285 -66.5877 -66.5351 -66.3984 -66.3947 -66.3752 -66.3710
    -0.2382   0.3148   0.3579   0.5118   0.8315   0.9941   0.9991   1.0592
     1.0795   1.1497   1.5008   3.9330   4.5565   5.9732   6.3956

          k = 0.5000 0.0962 0.0000 (  1463 PWs)   bands (ev):

  -109.0330-109.0280 -66.5866 -66.5360 -66.3994 -66.3935 -66.3761 -66.3704
    -0.1574   0.3168   0.4560   0.6061   0.7202   0.9153   0.9911   1.0378
     1.0735   1.1090   1.4964   3.5407   5.0231   6.0581   6.1814

          k =-0.3333 0.3849 0.1021 (  1467 PWs)   bands (ev):

  -109.0328-109.0287 -66.5877 -66.5352 -66.3987 -66.3953 -66.3759 -66.3719
    -0.2008   0.3104   0.3578   0.5091   0.8257   0.9629   0.9978   1.0476
     1.0987   1.1395   1.5334   3.9545   4.1237   6.2490   6.7517

          k = 0.5000 0.0962 0.1021 (  1467 PWs)   bands (ev):

  -109.0331-109.0284 -66.5869 -66.5361 -66.4000 -66.3945 -66.3761 -66.3711
    -0.1344   0.3081   0.4499   0.6162   0.7223   0.9068   0.9788   1.0431
     1.0758   1.0997   1.5246   3.5437   4.5700   6.1549   6.3811

          k =-0.5000-0.0962 0.1021 (  1467 PWs)   bands (ev):

  -109.0329-109.0286 -66.5883 -66.5358 -66.3996 -66.3939 -66.3760 -66.3713
    -0.1617   0.3045   0.4463   0.5989   0.7343   0.9391   0.9979   1.0494
     1.0791   1.1112   1.5277   3.5718   4.4105   6.1241   6.6900

          k = 0.3333-0.3849 0.1021 (  1467 PWs)   bands (ev):

  -109.0327-109.0288 -66.5890 -66.5351 -66.3986 -66.3944 -66.3761 -66.3717
    -0.2197   0.3139   0.3459   0.5239   0.8132   1.0058   1.0141   1.0485
     1.0695   1.1599   1.5304   4.0067   4.0726   6.0300   6.9391

          k =-0.1667-0.4811 0.1021 (  1467 PWs)   bands (ev):

  -109.0333-109.0282 -66.5880 -66.5372 -66.4001 -66.3939 -66.3759 -66.3697
    -0.1381   0.3528   0.4320   0.6207   0.8547   0.9108   0.9358   0.9404
     1.0655   1.0988   1.5956   3.3797   4.4597   6.3652   6.5474

          k =-0.3333 0.3849 0.2041 (  1462 PWs)   bands (ev):

  -109.0328-109.0283 -66.5866 -66.5355 -66.3985 -66.3943 -66.3760 -66.3714
    -0.1489   0.3131   0.3599   0.5246   0.8063   0.9611   1.0100   1.0456
     1.1050   1.1493   1.6103   3.4110   4.2239   6.1812   6.7446

          k = 0.5000 0.0962 0.2041 (  1462 PWs)   bands (ev):

  -109.0330-109.0281 -66.5858 -66.5363 -66.3996 -66.3937 -66.3756 -66.3714
    -0.1100   0.2996   0.4499   0.6154   0.7466   0.9228   0.9851   1.0658
     1.0836   1.0993   1.6102   3.3812   4.1988   5.8772   6.6046

          k =-0.5000-0.0962 0.2041 (  1462 PWs)   bands (ev):

  -109.0322-109.0288 -66.5887 -66.5340 -66.3983 -66.3944 -66.3754 -66.3715
    -0.1300   0.2907   0.4362   0.6020   0.7575   0.9539   0.9995   1.0660
     1.0941   1.1197   1.6205   3.3971   4.0838   5.8994   6.7015

          k = 0.3333-0.3849 0.2041 (  1462 PWs)   bands (ev):

  -109.0326-109.0285 -66.5876 -66.5348 -66.3985 -66.3940 -66.3754 -66.3721
    -0.1687   0.3129   0.3521   0.5327   0.8015   0.9978   1.0241   1.0437
     1.0898   1.1651   1.6115   3.4120   4.2045   6.1583   6.6326

          k =-0.1667-0.4811 0.2041 (  1462 PWs)   bands (ev):

  -109.0330-109.0280 -66.5873 -66.5361 -66.4004 -66.3937 -66.3754 -66.3693
    -0.1209   0.3379   0.4298   0.6237   0.8767   0.9185   0.9452   0.9636
     1.0818   1.1047   1.7005   3.3468   3.9824   5.9100   6.7143

          k =-0.3333 0.3849-0.3062 (  1464 PWs)   bands (ev):

  -109.0330-109.0282 -66.5859 -66.5367 -66.3987 -66.3955 -66.3756 -66.3709
    -0.1412   0.3114   0.3625   0.5322   0.7984   0.9714   1.0191   1.0390
     1.1034   1.1640   1.6635   3.1408   4.3360   6.0228   6.6795

          k = 0.5000 0.0962-0.3062 (  1464 PWs)   bands (ev):

  -109.0327-109.0286 -66.5872 -66.5349 -66.3991 -66.3936 -66.3755 -66.3731
    -0.1052   0.2881   0.4410   0.6064   0.7590   0.9423   0.9915   1.0660
     1.0951   1.1128   1.6821   3.1825   4.1761   5.6661   6.7365

          k =-0.3333 0.5774 0.1021 (  1464 PWs)   bands (ev):

  -109.0330-109.0286 -66.5879 -66.5367 -66.3999 -66.3944 -66.3754 -66.3711
    -0.0423   0.3578   0.3963   0.7206   0.7624   0.9081   0.9393   1.0439
     1.0849   1.0994   2.2809   3.5200   4.3899   5.4883   6.4865

          k =-0.3333 0.5774 0.2041 (  1461 PWs)   bands (ev):

  -109.0331-109.0283 -66.5867 -66.5371 -66.3997 -66.3942 -66.3759 -66.3705
    -0.0404   0.3631   0.3835   0.7400   0.7446   0.9111   0.9523   1.0719
     1.0903   1.0978   2.3836   3.6213   4.5937   4.8751   5.9407

     the Fermi energy is     1.7526 ev

!    total energy              =    -807.11838128 Ry
     estimated scf accuracy    <       0.00000024 Ry
     smearing contrib. (-TS)   =       0.03993161 Ry
     internal energy E=F+TS    =    -807.15831289 Ry

     The total energy is F=E-TS. E is the sum of the following terms:
     one-electron contribution =    -888.96564635 Ry
     hartree contribution      =     449.87216476 Ry
     xc contribution           =     -77.38330882 Ry
     ewald contribution        =    -290.68152248 Ry

     convergence has been achieved in  27 iterations

     Writing all to output data dir /Users/vinhtran/Documents/GitHub/DFT/Energy-Lattice-Constant/Copper/Copper.save/

     init_run     :      1.56s CPU      1.60s WALL (       1 calls)
     electrons    :    109.16s CPU    112.86s WALL (       1 calls)

     Called by init_run:
     wfcinit      :      1.22s CPU      1.26s WALL (       1 calls)
     potinit      :      0.02s CPU      0.02s WALL (       1 calls)
     hinit0       :      0.27s CPU      0.27s WALL (       1 calls)

     Called by electrons:
     c_bands      :     90.30s CPU     93.56s WALL (      27 calls)
     sum_band     :     17.80s CPU     18.16s WALL (      27 calls)
     v_of_rho     :      0.31s CPU      0.32s WALL (      28 calls)
     newd         :      0.71s CPU      0.77s WALL (      28 calls)
     mix_rho      :      0.07s CPU      0.08s WALL (      27 calls)

     Called by c_bands:
     init_us_2    :      1.95s CPU      2.03s WALL (    3740 calls)
     init_us_2:cp :      1.94s CPU      2.02s WALL (    3740 calls)
     cegterg      :     76.86s CPU     79.94s WALL (    1836 calls)

     Called by *egterg:
     cdiaghg      :      2.88s CPU      3.00s WALL (    6785 calls)
     h_psi        :     65.92s CPU     67.39s WALL (    6853 calls)
     s_psi        :      0.85s CPU      1.02s WALL (    6853 calls)
     g_psi        :      0.92s CPU      0.92s WALL (    4949 calls)

     Called by h_psi:
     h_psi:calbec :      1.22s CPU      1.77s WALL (    6853 calls)
     vloc_psi     :     63.51s CPU     64.05s WALL (    6853 calls)
     add_vuspsi   :      0.93s CPU      1.24s WALL (    6853 calls)

     General routines
     calbec       :      1.58s CPU      2.27s WALL (    8689 calls)
     fft          :      0.08s CPU      0.08s WALL (     308 calls)
     ffts         :      0.01s CPU      0.01s WALL (      27 calls)
     fftw         :     39.96s CPU     40.31s WALL (  277500 calls)

     Parallel routines

     PWSCF        :   1m50.81s CPU   1m54.65s WALL


   This run was terminated on:  17:30: 1  16Mar2022            

=------------------------------------------------------------------------------=
   JOB DONE.
=------------------------------------------------------------------------------=
