
     Program PWSCF v.7.0 starts on 21Mar2022 at 21:12:26 

     This program is part of the open-source Quantum ESPRESSO suite
     for quantum simulation of materials; please cite
         "P. Giannozzi et al., J. Phys.:Condens. Matter 21 395502 (2009);
         "P. Giannozzi et al., J. Phys.:Condens. Matter 29 465901 (2017);
         "P. Giannozzi et al., J. Chem. Phys. 152 154105 (2020);
          URL http://www.quantum-espresso.org", 
     in publications or presentations arising from this work. More details at
     http://www.quantum-espresso.org/quote

     Parallel version (MPI), running on     1 processors

     MPI processes distributed on     1 nodes
     0 MiB available memory on the printing compute node when the environment starts

     Reading input from Hf.sci.in

     Current dimensions of program PWSCF are:
     Max number of different atomic species (ntypx) = 10
     Max number of k-points (npk) =  40000
     Max angular momentum in pseudopotentials (lmaxx) =  4

     File ./temp/Hf.update deleted, as requested

     File ./temp/Hf.bfgs deleted, as requested
     Message from routine setup:
     using ibrav=0 with symmetry is DISCOURAGED, use correct ibrav instead

     Subspace diagonalization in iterative solution of the eigenvalue problem:
     a serial algorithm will be used


     G-vector sticks info
     --------------------
     sticks:   dense  smooth     PW     G-vecs:    dense   smooth      PW
     Sum         211     163     61                 3995     2875     615

     Using Slab Decomposition



     bravais-lattice index     =            0
     lattice parameter (alat)  =       4.5000  a.u.
     unit-cell volume          =     128.8707 (a.u.)^3
     number of atoms/cell      =            2
     number of atomic types    =            1
     number of electrons       =        24.00
     number of Kohn-Sham states=           16
     kinetic-energy cutoff     =      30.0000  Ry
     charge density cutoff     =     150.0000  Ry
     scf convergence threshold =      1.0E-06
     mixing beta               =       0.7000
     number of iterations used =            8  plain     mixing
     energy convergence thresh.=      1.0E-04
     force convergence thresh. =      1.0E-03
     press convergence thresh. =      5.0E-01
     Exchange-correlation= PBE
                           (   1   4   3   4   0   0   0)
     nstep                     =           50


     celldm(1)=   4.500000  celldm(2)=   0.000000  celldm(3)=   0.000000
     celldm(4)=   0.000000  celldm(5)=   0.000000  celldm(6)=   0.000000

     crystal axes: (cart. coord. in units of alat)
               a(1) = (   1.000000   0.000000   0.000000 )  
               a(2) = (  -0.500000   0.866025   0.000000 )  
               a(3) = (   0.000000   0.000000   1.633000 )  

     reciprocal axes: (cart. coord. in units 2 pi/alat)
               b(1) = (  1.000000  0.577351 -0.000000 )  
               b(2) = (  0.000000  1.154701  0.000000 )  
               b(3) = (  0.000000 -0.000000  0.612370 )  


     PseudoPot. # 1 for Hf read from file:
     /Users/vinhtran/Documents/GitHub/DFT/pseudos/Hf-sp.oncvpsp.upf
     MD5 check sum: 417ed15784afe83d2e06dacf143de3f8
     Pseudo is Norm-conserving + core correction, Zval = 12.0
     Generated using ONCVPSP code by D. R. Hamann
     Using radial grid of 1656 points,  8 beta functions with: 
                l(1) =   0
                l(2) =   0
                l(3) =   1
                l(4) =   1
                l(5) =   2
                l(6) =   2
                l(7) =   3
                l(8) =   3

     atomic species   valence    mass     pseudopotential
        Hf            12.00   178.48600     Hf( 1.00)

      8 Sym. Ops., with inversion, found ( 4 have fractional translation)



   Cartesian axes

     site n.     atom                  positions (alat units)
         1           Hf  tau(   1) = (   0.0000000   0.0000000   0.0000000  )
         2           Hf  tau(   2) = (   0.5000000   0.5773503   0.8165000  )

     number of k points=    28  Methfessel-Paxton smearing, width (Ry)=  0.1000
                       cart. coord. in units 2pi/alat
        k(    1) = (   0.1250000   0.2165065   0.0765462), wk =   0.0833333
        k(    2) = (   0.1250000   0.2165065   0.2296387), wk =   0.0833333
        k(    3) = (   0.1250000   0.5051817   0.0765462), wk =   0.0833333
        k(    4) = (   0.1250000   0.5051817   0.2296387), wk =   0.0833333
        k(    5) = (   0.1250000  -0.3608441   0.0765462), wk =   0.0833333
        k(    6) = (   0.1250000  -0.3608441   0.2296387), wk =   0.0833333
        k(    7) = (   0.1250000  -0.0721688   0.0765462), wk =   0.0833333
        k(    8) = (   0.1250000  -0.0721688   0.2296387), wk =   0.0833333
        k(    9) = (   0.3750000   0.6495194   0.0765462), wk =   0.0833333
        k(   10) = (   0.3750000   0.6495194   0.2296387), wk =   0.0833333
        k(   11) = (   0.3750000  -0.2165065   0.0765462), wk =   0.0833333
        k(   12) = (   0.3750000  -0.2165065   0.2296387), wk =   0.0833333
        k(   13) = (   0.2500000   0.0000000  -0.0765462), wk =   0.0416667
        k(   14) = (   0.2500000   0.0000000  -0.2296387), wk =   0.0416667
        k(   15) = (  -0.3750000  -0.3608441  -0.0765462), wk =   0.0833333
        k(   16) = (   0.5000000  -0.1443376  -0.0765462), wk =   0.0833333
        k(   17) = (  -0.3750000  -0.3608441  -0.2296387), wk =   0.0833333
        k(   18) = (   0.5000000  -0.1443376  -0.2296387), wk =   0.0833333
        k(   19) = (   0.3750000   0.0721688  -0.0765462), wk =   0.0833333
        k(   20) = (  -0.2500000   0.2886753  -0.0765462), wk =   0.0833333
        k(   21) = (   0.3750000   0.0721688  -0.2296387), wk =   0.0833333
        k(   22) = (  -0.2500000   0.2886753  -0.2296387), wk =   0.0833333
        k(   23) = (   0.0000000   0.1443376  -0.0765462), wk =   0.0416667
        k(   24) = (   0.0000000   0.1443376  -0.2296387), wk =   0.0416667
        k(   25) = (   0.7500000   0.0000000  -0.0765462), wk =   0.0416667
        k(   26) = (   0.7500000   0.0000000  -0.2296387), wk =   0.0416667
        k(   27) = (   0.0000000   0.4330129  -0.0765462), wk =   0.0416667
        k(   28) = (   0.0000000   0.4330129  -0.2296387), wk =   0.0416667

     Dense  grid:     3995 G-vectors     FFT dimensions: (  18,  18,  30)

     Smooth grid:     2875 G-vectors     FFT dimensions: (  18,  15,  30)

     Estimated max dynamical RAM per process >      10.34 MB

     Initial potential from superposition of free atoms

     starting charge      23.9963, renormalised to      24.0000
     Starting wfcs are   20 randomized atomic wfcs

     total cpu time spent up to now is        0.4 secs

     Self-consistent Calculation

     iteration #  1     ecut=    30.00 Ry     beta= 0.70
     Davidson diagonalization with overlap
     ethr =  1.00E-02,  avg # of iterations =  2.3

     Threshold (ethr) on eigenvalues was too large:
     Diagonalizing with lowered threshold

     Davidson diagonalization with overlap
     ethr =  1.33E-04,  avg # of iterations =  2.4

     total cpu time spent up to now is        1.2 secs

     total energy              =    -224.21171428 Ry
     estimated scf accuracy    <       0.03424009 Ry

     iteration #  2     ecut=    30.00 Ry     beta= 0.70
     Davidson diagonalization with overlap
     ethr =  1.43E-04,  avg # of iterations =  2.0

     total cpu time spent up to now is        1.6 secs

     total energy              =    -224.21737136 Ry
     estimated scf accuracy    <       0.00040053 Ry

     iteration #  3     ecut=    30.00 Ry     beta= 0.70
     Davidson diagonalization with overlap
     ethr =  1.67E-06,  avg # of iterations =  5.3

     total cpu time spent up to now is        2.0 secs

     total energy              =    -224.21740550 Ry
     estimated scf accuracy    <       0.00002032 Ry

     iteration #  4     ecut=    30.00 Ry     beta= 0.70
     Davidson diagonalization with overlap
     ethr =  8.46E-08,  avg # of iterations =  2.4

     total cpu time spent up to now is        2.4 secs

     End of self-consistent calculation

          k = 0.1250 0.2165 0.0765 (   357 PWs)   bands (ev):

   -27.2968 -25.2330  -0.5464   4.3365   5.3637   6.6471   7.5551   9.0758
    31.1806  31.8362  32.9966  33.6116  35.0279  36.8199  38.7594  41.0117

          k = 0.1250 0.2165 0.2296 (   349 PWs)   bands (ev):

   -26.7355 -25.8891   1.3652   3.8552   5.2647   6.7873   6.9687   7.7077
    31.0343  31.7187  32.8247  33.3877  34.9250  37.1281  39.5448  41.2592

          k = 0.1250 0.5052 0.0765 (   360 PWs)   bands (ev):

   -26.3909 -24.6994   0.2656   1.8903   2.1129   4.7513   6.6695   8.3048
    28.9322  29.4846  32.1037  33.8487  37.4333  38.2777  42.1188  43.8545

          k = 0.1250 0.5052 0.2296 (   359 PWs)   bands (ev):

   -25.9271 -25.2400   0.1049   0.9924   4.6387   5.2206   6.0245   7.3972
    27.8980  29.7742  30.3246  33.0922  36.4215  40.6325  43.3216  44.2503

          k = 0.1250-0.3608 0.0765 (   359 PWs)   bands (ev):

   -26.7810 -24.9262   0.1012   2.5706   3.4098   5.4497   7.0574   8.7080
    30.0876  30.2487  33.2471  34.8889  35.9645  37.5049  39.0805  40.9570

          k = 0.1250-0.3608 0.2296 (   360 PWs)   bands (ev):

   -26.2880 -25.5224   0.8579   2.1836   4.5353   5.8623   6.4438   7.3796
    29.1497  30.7817  31.6874  34.0821  36.2599  37.9043  39.8473  43.3387

          k = 0.1250-0.0722 0.0765 (   353 PWs)   bands (ev):

   -27.6268 -25.4497  -1.0003   6.0123   6.9372   7.5553   7.7775   9.2327
    29.6151  31.3697  33.4102  34.4756  34.9725  36.8703  38.3713  38.6026

          k = 0.1250-0.0722 0.2296 (   349 PWs)   bands (ev):

   -27.0555 -26.1597   1.3358   4.8388   6.4698   7.1549   7.7709   8.1585
    30.1815  30.3865  33.8605  34.0862  36.3013  37.1248  38.0490  39.6001

          k = 0.3750 0.6495 0.0765 (   363 PWs)   bands (ev):

   -26.3194 -24.5213   0.6339   1.4533   3.2071   3.4303   4.6223   8.9199
    27.3633  31.5997  34.0292  34.8091  37.1642  38.8552  41.4882  42.4525

          k = 0.3750 0.6495 0.2296 (   360 PWs)   bands (ev):

   -25.8281 -25.0918   1.0334   2.1544   2.5171   3.6451   5.2020   7.6835
    29.3288  30.7895  32.1947  33.6011  36.3098  39.3490  41.4462  42.1555

          k = 0.3750-0.2165 0.0765 (   358 PWs)   bands (ev):

   -26.7083 -24.7411   0.1468   1.2730   3.2144   6.4229   6.5424   9.1825
    27.1372  29.3973  29.9151  35.4541  39.0066  39.4836  41.1517  44.0100

          k = 0.3750-0.2165 0.2296 (   361 PWs)   bands (ev):

   -26.2032 -25.3799   0.9067   2.1080   3.1892   5.5073   6.8852   7.8203
    28.2786  28.9569  29.6415  33.1701  38.2192  42.0509  43.3988  45.1405

          k = 0.2500 0.0000-0.0765 (   357 PWs)   bands (ev):

   -27.3359 -25.1935  -0.6054   4.2434   5.6955   6.8176   7.1262   9.3170
    30.9720  31.8422  33.2444  33.7199  34.5099  34.6007  40.0771  41.1470

          k = 0.2500 0.0000-0.2296 (   349 PWs)   bands (ev):

   -26.7660 -25.8709   1.6059   4.4777   5.1153   5.4116   7.2792   7.9996
    31.2771  32.2237  32.3100  32.4701  36.0991  36.3282  40.7465  41.6595

          k =-0.3750-0.3608-0.0765 (   360 PWs)   bands (ev):

   -26.4800 -24.6050   0.2359   1.1551   2.8212   5.1704   6.0141   9.0233
    26.8686  30.4693  31.0656  34.4018  38.4085  38.4484  42.8724  43.7051

          k = 0.5000-0.1443-0.0765 (   360 PWs)   bands (ev):

   -26.5109 -24.5740   0.2826   1.0332   2.8876   5.1843   5.9613   9.1640
    26.6062  30.4575  31.1336  34.1548  38.4211  38.9531  42.5884  44.1053

          k =-0.3750-0.3608-0.2296 (   359 PWs)   bands (ev):

   -25.9812 -25.2102   0.5860   1.7017   3.1778   5.0126   6.0576   7.7317
    28.4078  29.8354  30.1463  32.8030  36.6405  41.4419  42.5802  44.3582

          k = 0.5000-0.1443-0.2296 (   359 PWs)   bands (ev):

   -25.9997 -25.1970   0.7547   1.8487   2.9380   4.7822   6.1330   7.7911
    28.3549  29.7371  30.3694  33.1555  36.1604  40.7078  43.5678  45.0514

          k = 0.3750 0.0722-0.0765 (   359 PWs)   bands (ev):

   -26.8791 -24.8229   0.0239   2.1164   3.9917   5.8937   6.3464   9.3123
    28.2067  31.5445  32.2051  33.8750  36.8847  37.2135  39.3120  43.3315

          k =-0.2500 0.2887-0.0765 (   359 PWs)   bands (ev):

   -26.8201 -24.8851   0.0568   2.2378   3.8031   5.8004   6.5698   9.0159
    28.8790  31.5173  31.9730  34.5020  35.7073  38.1559  40.6981  41.9983

          k = 0.3750 0.0722-0.2296 (   360 PWs)   bands (ev):

   -26.3416 -25.4925   1.6535   2.7802   3.4666   4.8974   6.5393   7.8157
    29.6283  30.6569  31.6838  33.7347  36.0810  37.9463  42.1070  42.2614

          k =-0.2500 0.2887-0.2296 (   360 PWs)   bands (ev):

   -26.3137 -25.5071   1.1471   2.5886   3.8062   5.7153   6.3103   7.6351
    29.7646  30.8580  31.1001  33.1429  37.1933  38.8400  39.7887  42.8839

          k = 0.0000 0.1443-0.0765 (   353 PWs)   bands (ev):

   -27.6118 -25.4637  -0.9760   6.1018   6.8693   7.0449   8.2629   9.1559
    29.2999  32.0245  32.7690  34.7183  36.6622  36.9416  37.9095  38.7774

          k = 0.0000 0.1443-0.2296 (   349 PWs)   bands (ev):

   -27.0440 -26.1657   1.2778   4.5795   6.8148   7.3793   7.8225   7.8838
    29.9889  30.5469  34.0666  34.8881  36.2265  36.3149  37.3261  39.6116

          k = 0.7500 0.0000-0.0765 (   363 PWs)   bands (ev):

   -26.2676 -24.5743   0.5812   2.2477   2.3874   3.1739   5.1031   8.5410
    29.3943  30.1114  32.7993  36.0679  37.8029  38.4762  41.3030  41.9843

          k = 0.7500 0.0000-0.2296 (   360 PWs)   bands (ev):

   -25.7951 -25.1121   0.5658   1.4968   3.4489   4.3284   4.8935   7.5514
    28.8734  30.8457  32.5985  33.2293  37.4373  38.5828  41.3922  41.5521

          k = 0.0000 0.4330-0.0765 (   358 PWs)   bands (ev):

   -26.6006 -24.8516   0.1871   1.9532   2.5259   5.7317   7.5057   8.4051
    27.6852  29.7231  31.9350  35.6783  36.8139  37.8457  41.5494  44.6606

          k = 0.0000 0.4330-0.2296 (   361 PWs)   bands (ev):

   -26.1371 -25.4202   0.2965   1.3246   4.5272   6.1916   6.9218   7.2926
    27.7132  29.2601  29.7764  32.8424  38.2810  42.6251  42.6712  43.5275

     the Fermi energy is    35.1319 ev

!    total energy              =    -224.21740812 Ry
     estimated scf accuracy    <       0.00000026 Ry
     smearing contrib. (-TS)   =       0.00750145 Ry
     internal energy E=F+TS    =    -224.22490957 Ry

     The total energy is F=E-TS. E is the sum of the following terms:
     one-electron contribution =      28.11870190 Ry
     hartree contribution      =      13.19328610 Ry
     xc contribution           =     -59.40709634 Ry
     ewald contribution        =    -206.12980123 Ry

     convergence has been achieved in   4 iterations

     Forces acting on atoms (cartesian axes, Ry/au):

     atom    1 type  1   force =     0.00000000    0.21819955    0.00000000
     atom    2 type  1   force =     0.00000000   -0.21819955    0.00000000

     Total force =     0.308581     Total SCF correction =     0.000515


     Computing stress (Cartesian axis) and pressure

          total   stress  (Ry/bohr**3)                   (kbar)     P=     3660.34
   0.02121807   0.00000000   0.00000000         3121.29        0.00        0.00
   0.00000000   0.02397972  -0.00000000            0.00     3527.54       -0.00
   0.00000000   0.00000000   0.02944973            0.00        0.00     4332.20


     BFGS Geometry Optimization
     Energy error            =      0.0E+00 Ry
     Gradient error          =      2.2E-01 Ry/Bohr
     Cell gradient error     =      4.3E+03 kbar

     number of scf cycles    =   1
     number of bfgs steps    =   0

     enthalpy           new  =    -224.2174081164 Ry

     new trust radius        =       0.5000000000 bohr
WARNING! With ibrav=0, cell_dofree='ibrav' has no effect. 

Atomic positions rescaled with new alat:
Hf                     NaN            Infinity                 NaN
Hf                Infinity            Infinity            Infinity
     new conv_thr            =       0.0000010000 Ry

     new unit-cell volume =    214.87376 a.u.^3 (    31.84101 Ang^3 )
     density =     18.61643 g/cm^3

CELL_PARAMETERS (alat=  4.50000000)
   1.158667344   0.000000000   0.000000000
  -0.579333672   1.021319546   0.000000000
   0.000000000  -0.000000000   1.992624371

ATOMIC_POSITIONS (alat)
Hf            0.0000000000        0.0171046506        0.0000000000
Hf            0.5793336719        0.6637753642        0.9963121857



     Writing config-only to output data dir ./temp/Hf.save/
     NEW-OLD atomic charge density approx. for the potential
     extrapolated charge   33.60450, renormalised to   24.00000

     total cpu time spent up to now is        3.2 secs

     Self-consistent Calculation

     iteration #  1     ecut=    30.00 Ry     beta= 0.70
     Davidson diagonalization with overlap
     ethr =  1.00E-06,  avg # of iterations = 10.2

     total cpu time spent up to now is        4.1 secs

     total energy              =    -222.99166337 Ry
     estimated scf accuracy    <       0.40202631 Ry

     iteration #  2     ecut=    30.00 Ry     beta= 0.70
     Davidson diagonalization with overlap
     ethr =  1.68E-03,  avg # of iterations =  4.1

     total cpu time spent up to now is        4.6 secs

     total energy              =    -225.20838533 Ry
     estimated scf accuracy    <       1.50059251 Ry

     iteration #  3     ecut=    30.00 Ry     beta= 0.70
     Davidson diagonalization with overlap
     ethr =  1.68E-03,  avg # of iterations =  2.0

     total cpu time spent up to now is        4.9 secs

     total energy              =    -224.78546078 Ry
     estimated scf accuracy    <       0.60258564 Ry

     iteration #  4     ecut=    30.00 Ry     beta= 0.70
     Davidson diagonalization with overlap
     ethr =  1.68E-03,  avg # of iterations =  2.0

     total cpu time spent up to now is        5.4 secs

     total energy              =    -224.93159977 Ry
     estimated scf accuracy    <       0.00491964 Ry

     iteration #  5     ecut=    30.00 Ry     beta= 0.70
     Davidson diagonalization with overlap
     ethr =  2.05E-05,  avg # of iterations =  3.3

     total cpu time spent up to now is        5.8 secs

     total energy              =    -224.93204982 Ry
     estimated scf accuracy    <       0.00037443 Ry

     iteration #  6     ecut=    30.00 Ry     beta= 0.70
     Davidson diagonalization with overlap
     ethr =  1.56E-06,  avg # of iterations =  3.8

     total cpu time spent up to now is        6.2 secs

     total energy              =    -224.93193489 Ry
     estimated scf accuracy    <       0.00020274 Ry

     iteration #  7     ecut=    30.00 Ry     beta= 0.70
     Davidson diagonalization with overlap
     ethr =  8.45E-07,  avg # of iterations =  2.0

     total cpu time spent up to now is        6.6 secs

     total energy              =    -224.93196642 Ry
     estimated scf accuracy    <       0.00000310 Ry

     iteration #  8     ecut=    30.00 Ry     beta= 0.70
     Davidson diagonalization with overlap
     ethr =  1.29E-08,  avg # of iterations =  2.8

     total cpu time spent up to now is        7.0 secs

     End of self-consistent calculation

          k = 0.1079 0.1836 0.0627 (   357 PWs)   bands (ev):

   -39.3401 -38.9878 -10.4042  -8.8538  -8.7522  -8.2447  -8.0914  -7.8425
    15.4979  18.8611  19.5533  20.1484  21.6648  22.0568  24.1183  24.6639

          k = 0.1079 0.1836 0.1882 (   349 PWs)   bands (ev):

   -39.1733 -39.0303  -9.8867  -9.1782  -8.6447  -8.3062  -8.1840  -8.0659
    16.4917  17.7569  19.7104  20.5038  20.7171  21.8455  24.1719  24.8589

          k = 0.1079 0.4284 0.0627 (   360 PWs)   bands (ev):

   -39.2296 -38.8469 -10.1533  -9.7869  -9.6525  -8.7568  -8.3560  -7.9759
    17.3662  18.1118  18.8449  20.7923  20.9910  21.8473  23.6453  26.5772

          k = 0.1079 0.4284 0.1882 (   359 PWs)   bands (ev):

   -39.0939 -38.9703 -10.2578 -10.0503  -8.9357  -8.6494  -8.4789  -8.2805
    16.7412  17.3464  18.6986  19.9943  22.4261  23.0222  24.7053  26.0553

          k = 0.1079-0.3060 0.0627 (   359 PWs)   bands (ev):

   -39.2530 -38.9285 -10.1964  -9.4121  -9.3713  -8.5571  -8.2371  -7.9108
    17.0803  18.5572  18.9116  20.7779  21.3623  21.6150  23.6558  24.0644

          k = 0.1079-0.3060 0.1882 (   360 PWs)   bands (ev):

   -39.1602 -39.0275 -10.0254  -9.6769  -8.9174  -8.4715  -8.3752  -8.2364
    17.0193  17.6951  19.4402  20.4774  21.0630  21.7131  24.1028  25.9720

          k = 0.1079-0.0612 0.0627 (   353 PWs)   bands (ev):

   -39.3890 -39.0099 -10.5576  -8.3877  -8.2785  -8.0561  -7.9820  -7.8006
    14.3053  17.6225  20.3430  20.9553  21.8159  22.7546  23.5773  23.9578

          k = 0.1079-0.0612 0.1882 (   349 PWs)   bands (ev):

   -39.2559 -39.0838  -9.9022  -8.9194  -8.2960  -8.1655  -7.9741  -7.9258
    15.5081  16.8392  20.2667  20.7536  21.8559  22.4304  23.4853  23.6341

          k = 0.3236 0.5508 0.0627 (   363 PWs)   bands (ev):

   -39.1822 -38.8584 -10.0464  -9.8128  -9.4467  -9.1606  -8.9897  -7.8337
    17.2846  19.0421  19.7403  19.9478  20.7764  23.1043  24.1227  25.1564

          k = 0.3236 0.5508 0.1882 (   360 PWs)   bands (ev):

   -39.0570 -38.9489  -9.9584  -9.6827  -9.5242  -9.2455  -8.7203  -8.1725
    17.8631  18.7952  19.0127  19.5486  21.0215  22.7174  24.5628  25.4227

          k = 0.3236-0.1836 0.0627 (   358 PWs)   bands (ev):

   -39.2133 -38.8637 -10.2053  -9.8817  -9.4970  -8.4612  -8.3262  -7.7866
    16.4820  17.3438  18.1155  20.5376  22.0974  24.4706  24.7916  26.0179

          k = 0.3236-0.1836 0.1882 (   361 PWs)   bands (ev):

   -39.1627 -38.9698 -10.0322  -9.7390  -9.3573  -8.7431  -8.2611  -8.0806
    16.7815  17.5713  18.3963  19.1872  22.2241  24.1290  25.7325  26.3006

          k = 0.2158 0.0000-0.0627 (   357 PWs)   bands (ev):

   -39.3567 -38.9577 -10.4293  -8.9565  -8.6476  -8.3147  -8.1194  -7.7765
    15.5314  18.4439  19.4117  20.8390  20.9947  21.6601  24.9915  25.3958

          k = 0.2158 0.0000-0.1882 (   349 PWs)   bands (ev):

   -39.2081 -38.9834  -9.8181  -8.9886  -8.7582  -8.7106  -8.0878  -7.9845
    16.5862  17.6130  19.7913  20.3392  21.2373  21.8460  24.7600  25.0860

          k =-0.3236-0.3060-0.0627 (   360 PWs)   bands (ev):

   -39.1972 -38.8462 -10.1870  -9.9073  -9.6105  -8.7037  -8.5632  -7.8133
    16.6747  17.7238  18.5134  20.9908  21.4820  23.1338  24.5096  26.6899

          k = 0.4315-0.1224-0.0627 (   360 PWs)   bands (ev):

   -39.2158 -38.8237 -10.1843  -9.9623  -9.6189  -8.7005  -8.5508  -7.7820
    16.5875  17.7164  18.5824  20.5142  21.8607  22.9576  24.8903  26.1569

          k =-0.3236-0.3060-0.1882 (   359 PWs)   bands (ev):

   -39.0833 -38.9534 -10.1253  -9.8539  -9.3596  -8.8659  -8.4751  -8.1362
    17.0402  18.1043  18.3759  19.1862  21.5981  23.7484  25.4211  26.2040

          k = 0.4315-0.1224-0.1882 (   359 PWs)   bands (ev):

   -39.1015 -38.9252 -10.0922  -9.8381  -9.4360  -8.9250  -8.4396  -8.1109
    16.9766  17.9221  18.6729  19.3968  21.3580  23.5825  25.3738  26.3088

          k = 0.3236 0.0612-0.0627 (   359 PWs)   bands (ev):

   -39.2851 -38.8624 -10.2343  -9.6412  -9.2451  -8.5236  -8.3754  -7.7658
    16.9776  17.6264  19.2669  20.0046  21.4083  22.3716  24.1619  25.3353

          k =-0.2158 0.2448-0.0627 (   359 PWs)   bands (ev):

   -39.2377 -38.9245 -10.2178  -9.5327  -9.2533  -8.5020  -8.4015  -7.8362
    16.9423  18.0152  19.0401  20.2821  21.3623  23.3722  23.8686  24.2933

          k = 0.3236 0.0612-0.1882 (   360 PWs)   bands (ev):

   -39.1776 -38.9778  -9.8043  -9.5143  -9.3051  -8.8727  -8.2947  -8.0694
    17.3480  17.8530  19.4037  19.5089  21.3951  22.4590  24.3040  25.4817

          k =-0.2158 0.2448-0.1882 (   360 PWs)   bands (ev):

   -39.1705 -39.0027  -9.9390  -9.5520  -9.1279  -8.6437  -8.3864  -8.1421
    17.3272  18.0873  18.9521  19.3762  21.6158  22.5420  24.2898  25.6828

          k = 0.0000 0.1224-0.0627 (   353 PWs)   bands (ev):

   -39.3850 -39.0208 -10.5471  -8.4230  -8.2511  -8.1131  -7.8713  -7.8288
    14.2859  17.7462  20.0195  21.1682  22.1916  22.9380  23.3881  24.1168

          k = 0.0000 0.1224-0.1882 (   349 PWs)   bands (ev):

   -39.2407 -39.1059  -9.9193  -8.9890  -8.2102  -8.0429  -8.0393  -7.9428
    15.4682  16.8825  20.0107  20.8989  21.9381  22.3661  23.1364  23.4918

          k = 0.6473 0.0000-0.0627 (   363 PWs)   bands (ev):

   -39.1905 -38.8648 -10.0475  -9.6207  -9.5212  -9.2837  -8.8559  -7.9169
    18.3768  18.5774  19.3008  20.1289  20.8331  22.6858  23.6220  25.4553

          k = 0.6473 0.0000-0.1882 (   360 PWs)   bands (ev):

   -39.0466 -38.9701 -10.0907  -9.8618  -9.1887  -9.0055  -8.8529  -8.2314
    17.6400  18.1860  19.5474  19.6342  22.1165  22.4525  23.9179  25.1075

          k = 0.0000 0.3672-0.0627 (   358 PWs)   bands (ev):

   -39.2287 -38.8873 -10.1728  -9.6720  -9.6192  -8.4834  -8.1081  -7.9708
    16.7250  18.1733  18.4148  20.7303  21.3711  22.8068  23.0284  26.6737

          k = 0.0000 0.3672-0.1882 (   361 PWs)   bands (ev):

   -39.1489 -39.0202 -10.2024  -9.9532  -8.9527  -8.3765  -8.3045  -8.2209
    16.4483  17.1251  18.5415  19.7819  22.9104  23.6581  24.2003  26.2831

     the Fermi energy is    20.8919 ev

!    total energy              =    -224.93196743 Ry
     estimated scf accuracy    <       0.00000005 Ry
     smearing contrib. (-TS)   =      -0.00377895 Ry
     internal energy E=F+TS    =    -224.92818849 Ry

     The total energy is F=E-TS. E is the sum of the following terms:
     one-electron contribution =     -14.90081185 Ry
     hartree contribution      =      21.88541932 Ry
     xc contribution           =     -57.69069579 Ry
     ewald contribution        =    -174.22210016 Ry

     convergence has been achieved in   8 iterations

     Forces acting on atoms (cartesian axes, Ry/au):

     atom    1 type  1   force =     0.00000000    0.06183079    0.00000000
     atom    2 type  1   force =     0.00000000   -0.06183079   -0.00000000

     Total force =     0.087442     Total SCF correction =     0.000274


     Computing stress (Cartesian axis) and pressure

          total   stress  (Ry/bohr**3)                   (kbar)     P=      -27.66
  -0.00047789  -0.00000000  -0.00000000          -70.30       -0.00       -0.00
   0.00000000   0.00013550   0.00000000            0.00       19.93        0.00
   0.00000000  -0.00000000  -0.00022176            0.00       -0.00      -32.62

     Energy error            =      7.1E-01 Ry
     Gradient error          =      6.2E-02 Ry/Bohr
     Cell gradient error     =      7.0E+01 kbar

     number of scf cycles    =   2
     number of bfgs steps    =   1

     enthalpy           old  =    -224.2174081164 Ry
     enthalpy           new  =    -224.9319674324 Ry

     CASE: enthalpy          _new < enthalpy          _old

     new trust radius        =       0.0869476694 bohr
WARNING! With ibrav=0, cell_dofree='ibrav' has no effect. 

Atomic positions rescaled with new alat:
Hf                     NaN            Infinity           -Infinity
Hf                Infinity            Infinity            Infinity
     new conv_thr            =       0.0000006183 Ry

     new unit-cell volume =    213.00494 a.u.^3 (    31.56408 Ang^3 )
     density =     18.77977 g/cm^3

CELL_PARAMETERS (alat=  4.50000000)
   1.144352024   0.000000000   0.000000000
  -0.572176012   1.028184829  -0.000000000
  -0.000000000   0.000000000   1.986649692

ATOMIC_POSITIONS (alat)
Hf            0.0000000000        0.0366712119       -0.0000000000
Hf            0.5721760122        0.6487856601        0.9933248459



     Writing config-only to output data dir ./temp/Hf.save/
     NEW-OLD atomic charge density approx. for the potential
     extrapolated charge   23.78947, renormalised to   24.00000

     total cpu time spent up to now is        7.8 secs

     Self-consistent Calculation

     iteration #  1     ecut=    30.00 Ry     beta= 0.70
     Davidson diagonalization with overlap
     ethr =  1.00E-06,  avg # of iterations =  9.0

     total cpu time spent up to now is        8.6 secs

     total energy              =    -224.94083796 Ry
     estimated scf accuracy    <       0.00194955 Ry

     iteration #  2     ecut=    30.00 Ry     beta= 0.70
     Davidson diagonalization with overlap
     ethr =  8.12E-06,  avg # of iterations =  2.2

     total cpu time spent up to now is        9.0 secs

     total energy              =    -224.94265842 Ry
     estimated scf accuracy    <       0.00096508 Ry

     iteration #  3     ecut=    30.00 Ry     beta= 0.70
     Davidson diagonalization with overlap
     ethr =  4.02E-06,  avg # of iterations =  1.1

     total cpu time spent up to now is        9.4 secs

     total energy              =    -224.94264229 Ry
     estimated scf accuracy    <       0.00013285 Ry

     iteration #  4     ecut=    30.00 Ry     beta= 0.70
     Davidson diagonalization with overlap
     ethr =  5.54E-07,  avg # of iterations =  2.0

     total cpu time spent up to now is        9.8 secs

     total energy              =    -224.94267564 Ry
     estimated scf accuracy    <       0.00000605 Ry

     iteration #  5     ecut=    30.00 Ry     beta= 0.70
     Davidson diagonalization with overlap
     ethr =  2.52E-08,  avg # of iterations =  2.0

     total cpu time spent up to now is       10.1 secs

     End of self-consistent calculation

          k = 0.1092 0.1824 0.0629 (   357 PWs)   bands (ev):

   -39.1139 -38.7941 -10.0641  -8.6227  -8.5372  -7.9801  -7.8480  -7.6859
    15.6701  18.9538  19.8969  20.3006  22.0557  22.2498  24.0453  24.9489

          k = 0.1092 0.1824 0.1888 (   349 PWs)   bands (ev):

   -38.9595 -38.8250  -9.6054  -8.9646  -8.3908  -8.0555  -7.9348  -7.8464
    16.6746  18.0249  19.8221  20.6677  20.8822  21.9786  24.4556  25.0589

          k = 0.1092 0.4255 0.0629 (   360 PWs)   bands (ev):

   -39.0131 -38.6535  -9.8467  -9.6136  -9.3101  -8.4677  -8.0813  -7.8885
    17.6964  18.5395  18.8424  20.7994  21.2995  22.0577  23.7557  26.9800

          k = 0.1092 0.4255 0.1888 (   359 PWs)   bands (ev):

   -38.8866 -38.7680 -10.0247  -9.8678  -8.6194  -8.3713  -8.1974  -8.0682
    16.9613  17.3854  18.9740  20.2233  22.5741  23.1433  24.9368  26.3810

          k = 0.1092-0.3039 0.0629 (   359 PWs)   bands (ev):

   -39.0537 -38.7157  -9.8457  -9.1929  -9.1432  -8.2772  -7.9743  -7.7867
    17.2699  18.9793  19.0712  20.8348  21.5836  21.6339  23.8349  24.5513

          k = 0.1092-0.3039 0.1888 (   360 PWs)   bands (ev):

   -38.9503 -38.8239  -9.7756  -9.4831  -8.6286  -8.2111  -8.1027  -8.0122
    17.1818  17.8699  19.6674  20.7180  21.1751  21.7463  24.4495  26.1684

          k = 0.1092-0.0608 0.0629 (   353 PWs)   bands (ev):

   -39.1556 -38.8209 -10.2284  -8.1349  -8.0667  -7.8250  -7.7328  -7.6332
    14.4877  17.6631  20.7776  21.2547  22.1333  23.0116  23.6454  24.2056

          k = 0.1092-0.0608 0.1888 (   349 PWs)   bands (ev):

   -39.0360 -38.8814  -9.6104  -8.6848  -8.0367  -7.9114  -7.7548  -7.7328
    15.7221  17.0538  20.5115  20.9236  22.0671  22.7007  23.5354  23.7551

          k = 0.3277 0.5471 0.0629 (   363 PWs)   bands (ev):

   -38.9480 -38.6468  -9.7490  -9.5416  -9.2697  -8.9488  -8.7646  -7.7085
    17.4968  19.2307  19.8836  20.0984  21.0722  23.4568  24.0550  25.6339

          k = 0.3277 0.5471 0.1888 (   360 PWs)   bands (ev):

   -38.8257 -38.7349  -9.7313  -9.5022  -9.2983  -9.0558  -8.4341  -7.9492
    18.0312  18.9553  19.1851  19.8100  21.1018  22.7693  24.8302  25.6641

          k = 0.3277-0.1824 0.0629 (   358 PWs)   bands (ev):

   -38.9694 -38.6588  -9.8910  -9.6278  -9.3199  -8.3023  -8.0819  -7.6374
    16.6821  17.6417  18.1026  20.8763  22.4974  24.2167  24.7474  26.5580

          k = 0.3277-0.1824 0.1888 (   361 PWs)   bands (ev):

   -38.9246 -38.7571  -9.8180  -9.5601  -9.0668  -8.5270  -8.0401  -7.8845
    16.8998  17.6731  18.7135  19.3585  22.5787  24.3823  25.5741  26.5632

          k = 0.2185-0.0000-0.0629 (   357 PWs)   bands (ev):

   -39.1129 -38.7656 -10.0855  -8.7331  -8.4647  -8.1260  -7.8629  -7.6101
    15.7352  18.5929  19.5507  21.0720  21.3563  22.0887  25.1849  25.6222

          k = 0.2185-0.0000-0.1888 (   349 PWs)   bands (ev):

   -38.9808 -38.7755  -9.5223  -8.7810  -8.5132  -8.5044  -7.8604  -7.7918
    16.7961  17.8509  19.9198  20.6048  21.4632  22.0993  24.7426  25.1963

          k =-0.3277-0.3039-0.0629 (   360 PWs)   bands (ev):

   -38.9675 -38.6286  -9.9303  -9.5780  -9.4257  -8.5353  -8.3368  -7.6768
    16.9072  17.9846  18.4719  21.3473  21.7383  23.4103  24.4851  26.9913

          k = 0.4369-0.1216-0.0629 (   360 PWs)   bands (ev):

   -38.9551 -38.6304  -9.9590  -9.6353  -9.4606  -8.5232  -8.3069  -7.6375
    16.8010  17.9678  18.5315  20.7990  22.1650  23.1917  24.7860  26.3880

          k =-0.3277-0.3039-0.1888 (   359 PWs)   bands (ev):

   -38.8529 -38.7369  -9.9114  -9.6675  -9.0760  -8.6671  -8.2442  -7.9247
    17.1617  18.1767  18.6748  19.3864  21.8301  23.9528  25.5146  26.4773

          k = 0.4369-0.1216-0.1888 (   359 PWs)   bands (ev):

   -38.8505 -38.7183  -9.9060  -9.6806  -9.1448  -8.7179  -8.1981  -7.8979
    17.0826  17.9859  18.9953  19.5682  21.6054  23.7568  25.4339  26.4841

          k = 0.3277 0.0608-0.0629 (   359 PWs)   bands (ev):

   -39.0290 -38.6679  -9.8736  -9.4597  -9.0953  -8.3357  -8.1167  -7.6067
    17.1891  17.8863  19.2395  20.2571  21.6412  22.6338  24.5206  25.1187

          k =-0.2185 0.2431-0.0629 (   359 PWs)   bands (ev):

   -39.0152 -38.7132  -9.8631  -9.2829  -9.0458  -8.3052  -8.1833  -7.6929
    17.1251  18.3646  19.0477  20.5558  21.7698  23.4626  24.1790  24.3924

          k = 0.3277 0.0608-0.1888 (   360 PWs)   bands (ev):

   -38.9437 -38.7580  -9.5620  -9.3476  -9.0738  -8.6429  -8.0570  -7.8626
    17.4860  18.0071  19.5616  19.7884  21.6456  22.6658  24.3185  25.6948

          k =-0.2185 0.2431-0.1888 (   360 PWs)   bands (ev):

   -38.9486 -38.7925  -9.6796  -9.3448  -8.8474  -8.4188  -8.1723  -7.9366
    17.4887  18.3306  19.0736  19.6039  21.8861  22.7370  24.5548  25.7040

          k = 0.0000 0.1216-0.0629 (   353 PWs)   bands (ev):

   -39.1587 -38.8324 -10.2195  -8.2454  -8.0203  -7.8039  -7.6617  -7.5984
    14.4502  17.7770  20.3790  21.2852  22.4085  23.1161  23.9137  24.4555

          k = 0.0000 0.1216-0.1888 (   349 PWs)   bands (ev):

   -39.0276 -38.9055  -9.6327  -8.7632  -8.0077  -7.8395  -7.7437  -7.6589
    15.6603  17.0852  20.2310  20.9736  21.9439  22.4171  23.5724  23.8581

          k = 0.6554-0.0000-0.0629 (   363 PWs)   bands (ev):

   -38.9648 -38.6625  -9.7071  -9.4421  -9.2018  -9.0525  -8.6409  -7.8176
    18.6920  18.8323  19.6470  20.1977  21.0049  22.9030  23.6538  25.9958

          k = 0.6554-0.0000-0.1888 (   360 PWs)   bands (ev):

   -38.8343 -38.7521  -9.8438  -9.6694  -8.9680  -8.7877  -8.5359  -8.0140
    17.9047  18.2610  19.8509  19.8619  22.1552  22.5850  24.1182  25.3477

          k = 0.0000 0.3647-0.0629 (   358 PWs)   bands (ev):

   -39.0233 -38.6885  -9.8493  -9.4939  -9.3239  -8.1675  -7.8716  -7.8075
    16.9614  18.4106  18.6672  20.9698  21.2571  22.7549  23.5306  27.1279

          k = 0.0000 0.3647-0.1888 (   361 PWs)   bands (ev):

   -38.9500 -38.8141  -9.9709  -9.7708  -8.6511  -8.0953  -8.0647  -7.9156
    16.6123  17.2072  18.7689  19.9342  23.0694  23.6648  24.6618  26.6685

     the Fermi energy is    21.1111 ev

!    total energy              =    -224.94267606 Ry
     estimated scf accuracy    <       0.00000033 Ry
     smearing contrib. (-TS)   =      -0.00369144 Ry
     internal energy E=F+TS    =    -224.93898462 Ry

     The total energy is F=E-TS. E is the sum of the following terms:
     one-electron contribution =     -13.89176895 Ry
     hartree contribution      =      21.58293179 Ry
     xc contribution           =     -57.70673472 Ry
     ewald contribution        =    -174.92341274 Ry

     convergence has been achieved in   5 iterations

     Forces acting on atoms (cartesian axes, Ry/au):

     atom    1 type  1   force =     0.00000000    0.04889895   -0.00000000
     atom    2 type  1   force =     0.00000000   -0.04889895    0.00000000

     Total force =     0.069154     Total SCF correction =     0.000442


     Computing stress (Cartesian axis) and pressure

          total   stress  (Ry/bohr**3)                   (kbar)     P=       -4.85
   0.00004222   0.00000000  -0.00000000            6.21        0.00       -0.00
   0.00000000   0.00016153  -0.00000000            0.00       23.76       -0.00
  -0.00000000  -0.00000000  -0.00030268           -0.00       -0.00      -44.53

     Energy error            =      1.1E-02 Ry
     Gradient error          =      4.9E-02 Ry/Bohr
     Cell gradient error     =      4.5E+01 kbar

     number of scf cycles    =   3
     number of bfgs steps    =   2

     enthalpy           old  =    -224.9319674324 Ry
     enthalpy           new  =    -224.9426760612 Ry

     CASE: enthalpy          _new < enthalpy          _old

     new trust radius        =       0.0962853422 bohr
WARNING! With ibrav=0, cell_dofree='ibrav' has no effect. 

Atomic positions rescaled with new alat:
Hf                Infinity            Infinity           -Infinity
Hf                Infinity            Infinity            Infinity
     new conv_thr            =       0.0000004890 Ry

     new unit-cell volume =    212.07262 a.u.^3 (    31.42592 Ang^3 )
     density =     18.86233 g/cm^3

CELL_PARAMETERS (alat=  4.50000000)
   1.141618194   0.000000000   0.000000000
  -0.570809097   1.035471967  -0.000000000
  -0.000000000  -0.000000000   1.968737613

ATOMIC_POSITIONS (alat)
Hf            0.0000000000        0.0584795044       -0.0000000000
Hf            0.5708090969        0.6318354624        0.9843688066



     Writing config-only to output data dir ./temp/Hf.save/
     NEW-OLD atomic charge density approx. for the potential
     extrapolated charge   23.89451, renormalised to   24.00000

     total cpu time spent up to now is       11.0 secs

     Self-consistent Calculation

     iteration #  1     ecut=    30.00 Ry     beta= 0.70
     Davidson diagonalization with overlap
     c_bands:  1 eigenvalues not converged
     ethr =  1.00E-06,  avg # of iterations =  9.5

     total cpu time spent up to now is       11.7 secs

     total energy              =    -224.95072827 Ry
     estimated scf accuracy    <       0.00137613 Ry

     iteration #  2     ecut=    30.00 Ry     beta= 0.70
     Davidson diagonalization with overlap
     ethr =  5.73E-06,  avg # of iterations =  2.0

     total cpu time spent up to now is       12.2 secs

     total energy              =    -224.95121096 Ry
     estimated scf accuracy    <       0.00029248 Ry

     iteration #  3     ecut=    30.00 Ry     beta= 0.70
     Davidson diagonalization with overlap
     ethr =  1.22E-06,  avg # of iterations =  2.0

     total cpu time spent up to now is       12.5 secs

     total energy              =    -224.95124446 Ry
     estimated scf accuracy    <       0.00001528 Ry

     iteration #  4     ecut=    30.00 Ry     beta= 0.70
     Davidson diagonalization with overlap
     ethr =  6.37E-08,  avg # of iterations =  2.0

     total cpu time spent up to now is       12.9 secs

     total energy              =    -224.95124645 Ry
     estimated scf accuracy    <       0.00000137 Ry

     iteration #  5     ecut=    30.00 Ry     beta= 0.70
     Davidson diagonalization with overlap
     ethr =  5.70E-09,  avg # of iterations =  2.1

     total cpu time spent up to now is       13.3 secs

     End of self-consistent calculation

          k = 0.1095 0.1811 0.0635 (   357 PWs)   bands (ev):

   -38.9772 -38.6738  -9.8479  -8.5148  -8.4071  -7.8473  -7.7245  -7.5977
    15.7437  18.8999  20.1958  20.3702  22.2585  22.4655  23.9606  24.9844

          k = 0.1095 0.1811 0.1905 (   349 PWs)   bands (ev):

   -38.8349 -38.6959  -9.4393  -8.8507  -8.2414  -7.9081  -7.8116  -7.7351
    16.7613  18.1993  19.8459  20.7785  20.9627  22.0981  24.5326  25.0152

          k = 0.1095 0.4225 0.0635 (   360 PWs)   bands (ev):

   -38.8689 -38.5602  -9.6439  -9.5103  -9.0385  -8.3225  -7.9289  -7.8935
    17.9018  18.7094  18.9543  20.6659  21.5545  22.1886  23.7652  27.3705

          k = 0.1095 0.4225 0.1905 (   359 PWs)   bands (ev):

   -38.7605 -38.6575  -9.8811  -9.7672  -8.3881  -8.2342  -8.0418  -7.9387
    17.1192  17.3570  19.1618  20.4065  22.5691  23.1778  25.0152  26.5083

          k = 0.1095-0.3018 0.0635 (   359 PWs)   bands (ev):

   -38.9389 -38.5869  -9.6195  -9.0856  -8.9627  -8.1366  -7.8337  -7.7390
    17.3532  19.1194  19.3267  20.7905  21.4626  21.8331  23.9012  25.0019

          k = 0.1095-0.3018 0.1905 (   360 PWs)   bands (ev):

   -38.8227 -38.7091  -9.6339  -9.3796  -8.4257  -8.0833  -7.9449  -7.8816
    17.2591  17.9769  19.8177  20.8619  21.2596  21.6850  24.5738  26.1578

          k = 0.1095-0.0604 0.0635 (   353 PWs)   bands (ev):

   -39.0060 -38.7065 -10.0226  -8.0412  -7.9383  -7.7208  -7.6012  -7.5325
    14.5735  17.6131  21.1355  21.4773  22.3401  23.1635  23.6445  24.3994

          k = 0.1095-0.0604 0.1905 (   349 PWs)   bands (ev):

   -38.8971 -38.7595  -9.4283  -8.5428  -7.9105  -7.7794  -7.6650  -7.6350
    15.8430  17.1773  20.6682  21.0791  22.1373  22.8343  23.5255  23.7849

          k = 0.3285 0.5432 0.0635 (   363 PWs)   bands (ev):

   -38.8084 -38.5359  -9.5964  -9.3231  -9.1403  -8.8331  -8.5985  -7.6801
    17.6272  19.3052  19.7585  20.3424  21.1989  23.5887  24.0117  26.1144

          k = 0.3285 0.5432 0.1905 (   360 PWs)   bands (ev):

   -38.6914 -38.6179  -9.6041  -9.3986  -9.1499  -8.9308  -8.2364  -7.8184
    18.1127  19.0306  19.2732  19.9662  21.1297  22.7556  24.9332  25.8180

          k = 0.3285-0.1811 0.0635 (   358 PWs)   bands (ev):

   -38.8267 -38.5448  -9.7194  -9.4218  -9.1904  -8.2447  -7.9328  -7.5760
    16.8066  17.8350  18.0892  21.0829  22.7747  23.7826  24.6695  26.9018

          k = 0.3285-0.1811 0.1905 (   361 PWs)   bands (ev):

   -38.7796 -38.6433  -9.6947  -9.4484  -8.8565  -8.3999  -7.9208  -7.7858
    16.9425  17.7070  18.9951  19.4651  22.8298  24.4970  25.2613  26.6847

          k = 0.2190-0.0000-0.0635 (   357 PWs)   bands (ev):

   -38.9573 -38.6569  -9.8706  -8.5974  -8.3693  -8.0493  -7.7187  -7.5192
    15.8263  18.6015  19.6636  21.0877  21.6365  22.5317  25.1174  25.2073

          k = 0.2190-0.0000-0.1905 (   349 PWs)   bands (ev):

   -38.8386 -38.6564  -9.3461  -8.6720  -8.3787  -8.3582  -7.7479  -7.7038
    16.8949  17.9913  19.9424  20.7530  21.6235  22.3137  24.5536  25.1838

          k =-0.3285-0.3018-0.0635 (   360 PWs)   bands (ev):

   -38.8278 -38.5137  -9.7782  -9.3375  -9.2882  -8.4642  -8.1892  -7.6322
    17.0632  18.1967  18.3651  21.4776  21.8764  23.5977  24.3936  27.2822

          k = 0.4380-0.1207-0.0635 (   360 PWs)   bands (ev):

   -38.7942 -38.5333  -9.8230  -9.4166  -9.3145  -8.4503  -8.1503  -7.5866
    16.9575  18.1393  18.4448  20.9390  22.2696  23.3533  24.5840  26.6443

          k =-0.3285-0.3018-0.1905 (   359 PWs)   bands (ev):

   -38.7220 -38.6138  -9.7839  -9.5509  -8.8830  -8.5490  -8.1063  -7.8052
    17.2040  18.1864  18.9183  19.5293  21.9595  24.0357  25.4523  26.5825

          k = 0.4380-0.1207-0.1905 (   359 PWs)   bands (ev):

   -38.6932 -38.6163  -9.7901  -9.5748  -8.9441  -8.6015  -8.0548  -7.7812
    17.1226  17.9915  19.2683  19.6687  21.7498  23.8475  25.3453  26.5699

          k = 0.3285 0.0604-0.0635 (   359 PWs)   bands (ev):

   -38.8732 -38.5620  -9.6505  -9.3266  -8.9900  -8.2591  -7.9618  -7.5328
    17.2946  18.0938  19.1289  20.4029  21.7227  22.7595  24.7424  24.9745

          k =-0.2190 0.2414-0.0635 (   359 PWs)   bands (ev):

   -38.8831 -38.5915  -9.6390  -9.1192  -8.9188  -8.2191  -8.0477  -7.6291
    17.2108  18.6387  18.9645  20.6749  22.0091  23.4159  24.2536  24.6006

          k = 0.3285 0.0604-0.1905 (   360 PWs)   bands (ev):

   -38.8090 -38.6315  -9.4381  -9.2450  -8.8891  -8.5112  -7.9277  -7.7544
    17.5331  18.0740  19.6356  20.0160  21.7755  22.8188  24.1804  25.8699

          k =-0.2190 0.2414-0.1905 (   360 PWs)   bands (ev):

   -38.8168 -38.6730  -9.5354  -9.2330  -8.6524  -8.2820  -8.0616  -7.8171
    17.5550  18.4681  19.1311  19.7894  22.0010  22.8116  24.6411  25.6220

          k =-0.0000 0.1207-0.0635 (   353 PWs)   bands (ev):

   -39.0209 -38.7099 -10.0134  -8.1727  -7.8936  -7.6532  -7.5589  -7.4731
    14.5272  17.7228  20.6646  21.3851  22.6615  23.2339  24.1749  24.5425

          k =-0.0000 0.1207-0.1905 (   349 PWs)   bands (ev):

   -38.8942 -38.7823  -9.4547  -8.6292  -7.9149  -7.7296  -7.5999  -7.5258
    15.7691  17.2050  20.4088  21.0534  21.8874  22.5214  23.7252  23.9545

          k = 0.6570-0.0000-0.0635 (   363 PWs)   bands (ev):

   -38.8180 -38.5670  -9.4869  -9.3463  -8.9500  -8.9157  -8.5015  -7.8164
    18.6527  19.2493  19.7881  20.1480  21.0826  22.9332  23.7400  26.6019

          k = 0.6570-0.0000-0.1905 (   360 PWs)   bands (ev):

   -38.7166 -38.6254  -9.6974  -9.5682  -8.8411  -8.6548  -8.3018  -7.8852
    18.1190  18.2451  19.9766  19.9869  22.1252  22.5983  24.2449  25.4925

          k =-0.0000 0.3622-0.0635 (   358 PWs)   bands (ev):

   -38.8997 -38.5761  -9.6452  -9.3816  -9.0936  -8.0162  -7.8548  -7.6502
    17.1049  18.3615  19.1148  20.8617  21.4429  22.6295  23.7098  27.5656

          k =-0.0000 0.3622-0.1905 (   361 PWs)   bands (ev):

   -38.8284 -38.6981  -9.8339  -9.6691  -8.4303  -7.9661  -7.9116  -7.7602
    16.7027  17.2384  18.9577  20.0792  23.1642  23.5572  24.8223  26.7924

     the Fermi energy is    21.2337 ev

!    total energy              =    -224.95124674 Ry
     estimated scf accuracy    <          9.1E-09 Ry
     smearing contrib. (-TS)   =      -0.00287031 Ry
     internal energy E=F+TS    =    -224.94837643 Ry

     The total energy is F=E-TS. E is the sum of the following terms:
     one-electron contribution =     -13.25999440 Ry
     hartree contribution      =      21.37623927 Ry
     xc contribution           =     -57.71171874 Ry
     ewald contribution        =    -175.35290256 Ry

     convergence has been achieved in   5 iterations

     Forces acting on atoms (cartesian axes, Ry/au):

     atom    1 type  1   force =    -0.00000000    0.03286740    0.00000000
     atom    2 type  1   force =     0.00000000   -0.03286740   -0.00000000

     Total force =     0.046482     Total SCF correction =     0.000128


     Computing stress (Cartesian axis) and pressure

          total   stress  (Ry/bohr**3)                   (kbar)     P=        6.75
   0.00022224  -0.00000000  -0.00000000           32.69       -0.00       -0.00
   0.00000000   0.00007837  -0.00000000            0.00       11.53       -0.00
   0.00000000  -0.00000000  -0.00016300            0.00       -0.00      -23.98

     Energy error            =      8.6E-03 Ry
     Gradient error          =      3.3E-02 Ry/Bohr
     Cell gradient error     =      3.3E+01 kbar

     number of scf cycles    =   4
     number of bfgs steps    =   3

     enthalpy           old  =    -224.9426760612 Ry
     enthalpy           new  =    -224.9512467392 Ry

     CASE: enthalpy          _new < enthalpy          _old

     new trust radius        =       0.1454516298 bohr
WARNING! With ibrav=0, cell_dofree='ibrav' has no effect. 

Atomic positions rescaled with new alat:
Hf                Infinity            Infinity           -Infinity
Hf                Infinity            Infinity            Infinity
     new conv_thr            =       0.0000003287 Ry

     new unit-cell volume =    211.47214 a.u.^3 (    31.33694 Ang^3 )
     density =     18.91589 g/cm^3

CELL_PARAMETERS (alat=  4.50000000)
   1.146669549   0.000000000   0.000000000
  -0.573334775   1.041812857  -0.000000000
  -0.000000000  -0.000000000   1.942618932

ATOMIC_POSITIONS (alat)
Hf            0.0000000000        0.0913581309       -0.0000000000
Hf            0.5733347747        0.6031840975        0.9713094662



     Writing config-only to output data dir ./temp/Hf.save/
     NEW-OLD atomic charge density approx. for the potential
     extrapolated charge   23.93186, renormalised to   24.00000

     total cpu time spent up to now is       14.2 secs

     Self-consistent Calculation

     iteration #  1     ecut=    30.00 Ry     beta= 0.70
     Davidson diagonalization with overlap
     ethr =  1.00E-06,  avg # of iterations = 10.0

     total cpu time spent up to now is       15.0 secs

     total energy              =    -224.95696141 Ry
     estimated scf accuracy    <       0.00263276 Ry

     iteration #  2     ecut=    30.00 Ry     beta= 0.70
     Davidson diagonalization with overlap
     ethr =  1.10E-05,  avg # of iterations =  2.0

     total cpu time spent up to now is       15.4 secs

     total energy              =    -224.95732033 Ry
     estimated scf accuracy    <       0.00024965 Ry

     iteration #  3     ecut=    30.00 Ry     beta= 0.70
     Davidson diagonalization with overlap
     ethr =  1.04E-06,  avg # of iterations =  2.0

     total cpu time spent up to now is       15.8 secs

     total energy              =    -224.95735242 Ry
     estimated scf accuracy    <       0.00000967 Ry

     iteration #  4     ecut=    30.00 Ry     beta= 0.70
     Davidson diagonalization with overlap
     ethr =  4.03E-08,  avg # of iterations =  2.0

     total cpu time spent up to now is       16.1 secs

     total energy              =    -224.95735310 Ry
     estimated scf accuracy    <       0.00000049 Ry

     iteration #  5     ecut=    30.00 Ry     beta= 0.70
     Davidson diagonalization with overlap
     ethr =  2.05E-09,  avg # of iterations =  3.3

     total cpu time spent up to now is       16.5 secs

     End of self-consistent calculation

          k = 0.1090 0.1800 0.0643 (   357 PWs)   bands (ev):

   -38.8631 -38.5639  -9.6350  -8.4391  -8.3052  -7.7781  -7.6314  -7.5367
    15.7785  18.7551  20.3786  20.5689  22.3203  22.6927  24.0636  24.7941

          k = 0.1090 0.1800 0.1930 (   349 PWs)   bands (ev):

   -38.7294 -38.5817  -9.2845  -8.7496  -8.1268  -7.8106  -7.7285  -7.6626
    16.8189  18.3616  19.8384  20.8456  21.0994  22.2672  24.4508  24.8063

          k = 0.1090 0.4199 0.0643 (   360 PWs)   bands (ev):

   -38.7119 -38.5145  -9.4788  -9.3915  -8.7138  -8.2471  -7.9868  -7.8210
    18.0251  18.4274  19.4876  20.3896  21.8788  22.3402  23.6991  27.9102

          k = 0.1090 0.4199 0.1930 (   359 PWs)   bands (ev):

   -38.6473 -38.5688  -9.7404  -9.6826  -8.1760  -8.1597  -7.9247  -7.8464
    17.1795  17.4443  19.3472  20.5993  22.4549  23.2111  24.9871  26.4986

          k = 0.1090-0.3000 0.0643 (   359 PWs)   bands (ev):

   -38.8094 -38.5071  -9.3972  -8.9936  -8.7931  -8.0578  -7.7350  -7.7339
    17.3951  19.0878  19.5720  20.7917  21.2271  22.1744  23.8574  25.5309

          k = 0.1090-0.3000 0.1930 (   360 PWs)   bands (ev):

   -38.7002 -38.6247  -9.5033  -9.2901  -8.2425  -8.0185  -7.8341  -7.7768
    17.3165  18.0939  19.9343  20.9886  21.4546  21.5706  24.5252  25.9901

          k = 0.1090-0.0600 0.0643 (   353 PWs)   bands (ev):

   -38.8748 -38.6052  -9.8234  -7.9931  -7.8333  -7.6801  -7.5030  -7.4511
    14.6197  17.5139  21.5185  21.6647  22.6063  23.3001  23.5801  24.4234

          k = 0.1090-0.0600 0.1930 (   349 PWs)   bands (ev):

   -38.7719 -38.6570  -9.2532  -8.4062  -7.8391  -7.6876  -7.6307  -7.5688
    15.9352  17.2896  20.7661  21.3120  22.1442  22.9071  23.4382  23.7246

          k = 0.3270 0.5399 0.0643 (   363 PWs)   bands (ev):

   -38.6750 -38.4720  -9.4599  -9.1147  -8.9917  -8.7124  -8.4311  -7.7443
    17.7416  19.3480  19.5501  20.5501  21.3158  23.3787  24.1408  26.8570

          k = 0.3270 0.5399 0.1930 (   360 PWs)   bands (ev):

   -38.5810 -38.5289  -9.4972  -9.3233  -9.0047  -8.7848  -8.0528  -7.7358
    18.1707  19.0868  19.4093  20.1075  21.1813  22.6467  24.8975  25.8921

          k = 0.3270-0.1800 0.0643 (   358 PWs)   bands (ev):

   -38.7049 -38.4631  -9.5673  -9.1917  -9.0521  -8.2217  -7.7958  -7.5820
    16.9223  17.7924  18.3287  21.1761  23.1045  23.1752  24.4646  27.3477

          k = 0.3270-0.1800 0.1930 (   361 PWs)   bands (ev):

   -38.6494 -38.5673  -9.5925  -9.3582  -8.6107  -8.2645  -7.8463  -7.7431
    16.9432  17.7155  19.3016  19.6600  23.1074  24.4889  24.7465  26.7011

          k = 0.2180-0.0000-0.0643 (   357 PWs)   bands (ev):

   -38.8195 -38.5708  -9.6600  -8.4687  -8.3111  -7.9991  -7.6040  -7.4692
    15.8670  18.5319  19.8683  20.9505  21.9880  22.9791  24.6637  25.1512

          k = 0.2180-0.0000-0.1930 (   349 PWs)   bands (ev):

   -38.7100 -38.5652  -9.1908  -8.5962  -8.2577  -8.1924  -7.6821  -7.6669
    16.9425  18.1396  19.9262  20.8593  21.7944  22.5581  24.1741  25.0082

          k =-0.3270-0.3000-0.0643 (   360 PWs)   bands (ev):

   -38.6794 -38.4598  -9.6351  -9.1767  -9.0454  -8.4215  -8.0501  -7.6638
    17.2220  18.1803  18.4719  21.4032  21.9384  23.8586  24.1866  27.6326

          k = 0.4360-0.1200-0.0643 (   360 PWs)   bands (ev):

   -38.6566 -38.4681  -9.6826  -9.2574  -9.0702  -8.4135  -8.0058  -7.6164
    17.1396  18.1417  18.5055  20.9741  22.2193  23.5631  24.2474  27.1997

          k =-0.3270-0.3000-0.1930 (   359 PWs)   bands (ev):

   -38.6074 -38.5261  -9.6750  -9.4581  -8.6742  -8.4123  -8.0098  -7.7322
    17.2091  18.1651  19.1765  19.7953  22.0282  24.0334  25.2356  26.5416

          k = 0.4360-0.1200-0.1930 (   359 PWs)   bands (ev):

   -38.5695 -38.5374  -9.6857  -9.4817  -8.7158  -8.4766  -7.9535  -7.7181
    17.1403  17.9841  19.5313  19.8701  21.8668  23.8792  25.0963  26.5743

          k = 0.3270 0.0600-0.0643 (   359 PWs)   bands (ev):

   -38.7382 -38.4871  -9.4375  -9.1718  -8.8803  -8.2185  -7.8299  -7.5201
    17.3592  18.3687  18.9493  20.4545  21.8629  22.7181  24.3555  25.5624

          k =-0.2180 0.2400-0.0643 (   359 PWs)   bands (ev):

   -38.7447 -38.5199  -9.4196  -8.9738  -8.8068  -8.1728  -7.9210  -7.6133
    17.2667  18.8165  18.9305  20.7074  22.1008  23.3264  24.1169  25.0091

          k = 0.3270 0.0600-0.1930 (   360 PWs)   bands (ev):

   -38.7002 -38.5326  -9.3458  -9.1591  -8.6607  -8.3769  -7.8458  -7.6988
    17.5306  18.1304  19.7050  20.3235  21.8794  22.9597  23.8600  25.9460

          k =-0.2180 0.2400-0.1930 (   360 PWs)   bands (ev):

   -38.6943 -38.5883  -9.4133  -9.1516  -8.4546  -8.1451  -8.0046  -7.7305
    17.5702  18.5320  19.2347  20.1017  22.0270  22.8060  24.4952  25.5074

          k =-0.0000 0.1200-0.0643 (   353 PWs)   bands (ev):

   -38.9093 -38.5890  -9.8137  -8.1228  -7.7983  -7.5739  -7.4783  -7.4052
    14.5722  17.6088  20.9099  21.6618  22.9349  23.2163  24.2419  24.5104

          k =-0.0000 0.1200-0.1930 (   349 PWs)   bands (ev):

   -38.7726 -38.6766  -9.2817  -8.4948  -7.8720  -7.6513  -7.5235  -7.4544
    15.8603  17.3124  20.5966  21.2143  21.7497  22.7186  23.6973  23.9013

          k = 0.6541-0.0000-0.0643 (   363 PWs)   bands (ev):

   -38.6725 -38.5148  -9.2889  -9.2617  -8.8083  -8.6438  -8.3739  -7.9214
    18.4699  19.7344  19.8136  20.0081  21.2216  22.7587  23.9180  27.4739

          k = 0.6541-0.0000-0.1930 (   360 PWs)   bands (ev):

   -38.6167 -38.5259  -9.5537  -9.4943  -8.7500  -8.5470  -8.0574  -7.8037
    18.2018  18.4115  20.0547  20.0654  22.0773  22.4745  24.3290  25.5841

          k =-0.0000 0.3599-0.0643 (   358 PWs)   bands (ev):

   -38.7780 -38.4945  -9.4697  -9.2581  -8.8457  -7.9428  -7.8969  -7.5515
    17.2065  18.1946  19.6709  20.5077  21.9101  22.5260  23.6841  28.1177

          k =-0.0000 0.3599-0.1930 (   361 PWs)   bands (ev):

   -38.7064 -38.6143  -9.7054  -9.5753  -8.2214  -7.8728  -7.8310  -7.6695
    16.7581  17.3011  19.1876  20.2513  23.3039  23.3703  24.7983  26.7708

     the Fermi energy is    21.3387 ev

!    total energy              =    -224.95735323 Ry
     estimated scf accuracy    <       0.00000002 Ry
     smearing contrib. (-TS)   =      -0.00084319 Ry
     internal energy E=F+TS    =    -224.95651005 Ry

     The total energy is F=E-TS. E is the sum of the following terms:
     one-electron contribution =     -12.70673017 Ry
     hartree contribution      =      21.18959643 Ry
     xc contribution           =     -57.71375203 Ry
     ewald contribution        =    -175.72562428 Ry

     convergence has been achieved in   5 iterations

     Forces acting on atoms (cartesian axes, Ry/au):

     atom    1 type  1   force =    -0.00000000    0.00829368    0.00000000
     atom    2 type  1   force =     0.00000000   -0.00829368   -0.00000000

     Total force =     0.011729     Total SCF correction =     0.000319


     Computing stress (Cartesian axis) and pressure

          total   stress  (Ry/bohr**3)                   (kbar)     P=       24.01
   0.00028650   0.00000000   0.00000000           42.14        0.00        0.00
   0.00000000  -0.00003777   0.00000000            0.00       -5.56        0.00
   0.00000000   0.00000000   0.00024090            0.00        0.00       35.44

     Energy error            =      6.1E-03 Ry
     Gradient error          =      8.3E-03 Ry/Bohr
     Cell gradient error     =      4.2E+01 kbar

     number of scf cycles    =   5
     number of bfgs steps    =   4

     enthalpy           old  =    -224.9512467392 Ry
     enthalpy           new  =    -224.9573532340 Ry

     CASE: enthalpy          _new < enthalpy          _old

     new trust radius        =       0.0458983554 bohr
WARNING! With ibrav=0, cell_dofree='ibrav' has no effect. 

Atomic positions rescaled with new alat:
Hf                Infinity            Infinity           -Infinity
Hf                Infinity            Infinity            Infinity
     new conv_thr            =       0.0000000829 Ry

     new unit-cell volume =    212.20004 a.u.^3 (    31.44480 Ang^3 )
     density =     18.85100 g/cm^3

CELL_PARAMETERS (alat=  4.50000000)
   1.153358550   0.000000000   0.000000000
  -0.576679275   1.038004866  -0.000000000
  -0.000000000   0.000000000   1.945110086

ATOMIC_POSITIONS (alat)
Hf            0.0000000000        0.1011865557       -0.0000000000
Hf            0.5766792752        0.5908170108        0.9725550431



     Writing config-only to output data dir ./temp/Hf.save/
     NEW-OLD atomic charge density approx. for the potential
     extrapolated charge   24.08231, renormalised to   24.00000

     total cpu time spent up to now is       17.4 secs

     Self-consistent Calculation

     iteration #  1     ecut=    30.00 Ry     beta= 0.70
     Davidson diagonalization with overlap
     ethr =  1.00E-06,  avg # of iterations =  7.6

     total cpu time spent up to now is       18.1 secs

     total energy              =    -224.95797460 Ry
     estimated scf accuracy    <       0.00032152 Ry

     iteration #  2     ecut=    30.00 Ry     beta= 0.70
     Davidson diagonalization with overlap
     ethr =  1.34E-06,  avg # of iterations =  2.0

     total cpu time spent up to now is       18.5 secs

     total energy              =    -224.95822065 Ry
     estimated scf accuracy    <       0.00012951 Ry

     iteration #  3     ecut=    30.00 Ry     beta= 0.70
     Davidson diagonalization with overlap
     ethr =  5.40E-07,  avg # of iterations =  1.0

     total cpu time spent up to now is       18.8 secs

     total energy              =    -224.95822439 Ry
     estimated scf accuracy    <       0.00001448 Ry

     iteration #  4     ecut=    30.00 Ry     beta= 0.70
     Davidson diagonalization with overlap
     ethr =  6.03E-08,  avg # of iterations =  2.0

     total cpu time spent up to now is       19.2 secs

     total energy              =    -224.95822776 Ry
     estimated scf accuracy    <       0.00000078 Ry

     iteration #  5     ecut=    30.00 Ry     beta= 0.70
     Davidson diagonalization with overlap
     ethr =  3.26E-09,  avg # of iterations =  2.1

     total cpu time spent up to now is       19.6 secs

     End of self-consistent calculation

          k = 0.1084 0.1806 0.0643 (   357 PWs)   bands (ev):

   -38.9188 -38.6297  -9.6576  -8.5055  -8.3846  -7.8694  -7.7118  -7.6311
    15.7023  18.6615  20.3305  20.5188  22.2630  22.6472  24.0179  24.6002

          k = 0.1084 0.1806 0.1928 (   349 PWs)   bands (ev):

   -38.7872 -38.6446  -9.3224  -8.8065  -8.2056  -7.9028  -7.8123  -7.7465
    16.7414  18.2981  19.7648  20.7743  21.0811  22.2262  24.3122  24.6632

          k = 0.1084 0.4215 0.0643 (   360 PWs)   bands (ev):

   -38.7530 -38.5888  -9.5556  -9.4396  -8.7206  -8.3481  -8.1108  -7.9190
    17.9335  18.2528  19.5026  20.2214  21.9204  22.2846  23.5759  27.9466

          k = 0.1084 0.4215 0.1928 (   359 PWs)   bands (ev):

   -38.7036 -38.6269  -9.7886  -9.7400  -8.2772  -8.2296  -8.0141  -7.9390
    17.0880  17.4219  19.2982  20.5303  22.3260  23.1865  24.8591  26.3374

          k = 0.1084-0.3011 0.0643 (   359 PWs)   bands (ev):

   -38.8496 -38.5840  -9.4228  -9.0651  -8.8559  -8.1513  -7.8350  -7.8273
    17.3229  18.9805  19.4722  20.7210  21.1756  22.1789  23.6852  25.5211

          k = 0.1084-0.3011 0.1928 (   360 PWs)   bands (ev):

   -38.7530 -38.6890  -9.5453  -9.3486  -8.3147  -8.1172  -7.9250  -7.8631
    17.2532  18.0313  19.8552  20.9712  21.3430  21.5830  24.3572  25.8237

          k = 0.1084-0.0602 0.0643 (   353 PWs)   bands (ev):

   -38.9300 -38.6736  -9.8492  -8.0585  -7.9076  -7.7772  -7.5830  -7.5340
    14.5389  17.4295  21.5026  21.6093  22.5876  23.2049  23.4726  24.3234

          k = 0.1084-0.0602 0.1928 (   349 PWs)   bands (ev):

   -38.8288 -38.7232  -9.2930  -8.4641  -7.9186  -7.7723  -7.7175  -7.6421
    15.8539  17.2247  20.6817  21.2562  22.0608  22.8152  23.3412  23.6388

          k = 0.3251 0.5419 0.0643 (   363 PWs)   bands (ev):

   -38.7267 -38.5529  -9.5066  -9.1537  -9.0459  -8.7531  -8.4954  -7.8765
    17.7061  19.2956  19.4641  20.4995  21.2469  23.1375  24.0719  26.9601

          k = 0.3251 0.5419 0.1928 (   360 PWs)   bands (ev):

   -38.6438 -38.5976  -9.5518  -9.3913  -9.0488  -8.8261  -8.1209  -7.8352
    18.1135  19.0303  19.4016  20.0494  21.1324  22.4969  24.7295  25.7486

          k = 0.3251-0.1806 0.0643 (   358 PWs)   bands (ev):

   -38.7622 -38.5408  -9.6115  -9.2221  -9.1042  -8.2867  -7.8527  -7.7012
    16.8718  17.6981  18.3315  21.0635  23.0187  23.0731  24.2338  27.3938

          k = 0.3251-0.1806 0.1928 (   361 PWs)   bands (ev):

   -38.7073 -38.6442  -9.6497  -9.4255  -8.6308  -8.2997  -7.9269  -7.8465
    16.8629  17.6419  19.2579  19.6432  23.0738  24.3567  24.5420  26.5741

          k = 0.2168-0.0000-0.0643 (   357 PWs)   bands (ev):

   -38.8751 -38.6449  -9.6852  -8.5183  -8.3886  -8.0633  -7.6750  -7.5731
    15.7743  18.4574  19.8604  20.8069  21.9976  22.9120  24.5033  25.0105

          k = 0.2168-0.0000-0.1928 (   349 PWs)   bands (ev):

   -38.7674 -38.6364  -9.2383  -8.6671  -8.3153  -8.2329  -7.7617  -7.7579
    16.8470  18.0923  19.8444  20.7919  21.7017  22.4993  24.0190  24.8932

          k =-0.3251-0.3011-0.0643 (   360 PWs)   bands (ev):

   -38.7242 -38.5491  -9.6847  -9.2474  -9.0539  -8.4835  -8.1093  -7.7861
    17.1916  18.0790  18.4659  21.2338  21.8918  23.8069  23.9519  27.5872

          k = 0.4335-0.1204-0.0643 (   360 PWs)   bands (ev):

   -38.7144 -38.5476  -9.7213  -9.3067  -9.0821  -8.4845  -8.0688  -7.7425
    17.1251  18.0490  18.4910  20.8774  22.1164  23.5254  24.0104  27.3138

          k =-0.3251-0.3011-0.1928 (   359 PWs)   bands (ev):

   -38.6661 -38.6000  -9.7330  -9.5287  -8.6988  -8.4443  -8.0965  -7.8301
    17.1333  18.0868  19.1475  19.7936  21.9558  23.8916  25.0678  26.3697

          k = 0.4335-0.1204-0.1928 (   359 PWs)   bands (ev):

   -38.6367 -38.6082  -9.7370  -9.5409  -8.7362  -8.5138  -8.0401  -7.8192
    17.0793  17.9251  19.4838  19.8585  21.8050  23.7581  24.9460  26.4476

          k = 0.3251 0.0602-0.0643 (   359 PWs)   bands (ev):

   -38.7955 -38.5662  -9.4650  -9.2022  -8.9310  -8.2916  -7.8990  -7.6357
    17.2776  18.3816  18.8492  20.3867  21.8393  22.6144  24.1512  25.5869

          k =-0.2168 0.2408-0.0643 (   359 PWs)   bands (ev):

   -38.7897 -38.6027  -9.4469  -9.0395  -8.8798  -8.2433  -7.9800  -7.7193
    17.1990  18.7270  18.8892  20.6013  22.0316  23.1792  23.9214  25.0158

          k = 0.3251 0.0602-0.1928 (   360 PWs)   bands (ev):

   -38.7659 -38.6036  -9.4016  -9.2150  -8.6830  -8.4207  -7.9318  -7.7968
    17.4478  18.0790  19.6456  20.3290  21.7975  22.8587  23.7122  25.8291

          k =-0.2168 0.2408-0.1928 (   360 PWs)   bands (ev):

   -38.7490 -38.6598  -9.4666  -9.2244  -8.5040  -8.1934  -8.0913  -7.8201
    17.4786  18.4287  19.2147  20.1173  21.9212  22.6726  24.3197  25.4124

          k =-0.0000 0.1204-0.0643 (   353 PWs)   bands (ev):

   -38.9664 -38.6515  -9.8385  -8.1804  -7.8700  -7.6766  -7.5690  -7.5042
    14.5013  17.5197  20.9348  21.6963  22.7763  23.2490  24.0316  24.3388

          k =-0.0000 0.1204-0.1928 (   349 PWs)   bands (ev):

   -38.8289 -38.7391  -9.3179  -8.5442  -7.9494  -7.7313  -7.6252  -7.5545
    15.7913  17.2503  20.5589  21.1622  21.7060  22.7316  23.5141  23.7252

          k = 0.6503-0.0000-0.0643 (   363 PWs)   bands (ev):

   -38.7227 -38.5885  -9.3755  -9.2983  -8.8791  -8.6530  -8.4452  -8.0603
    18.3284  19.6768  19.7708  19.8877  21.2465  22.5309  23.8561  27.5983

          k = 0.6503-0.0000-0.1928 (   360 PWs)   bands (ev):

   -38.6759 -38.5910  -9.5968  -9.5622  -8.8272  -8.6246  -8.1067  -7.9033
    18.1127  18.4134  19.9569  20.0121  22.0255  22.2859  24.2392  25.4685

          k =-0.0000 0.3613-0.0643 (   358 PWs)   bands (ev):

   -38.8244 -38.5611  -9.5240  -9.3146  -8.8814  -8.0534  -8.0021  -7.6605
    17.1424  18.0510  19.6624  20.3412  21.9777  22.5056  23.5019  28.1122

          k =-0.0000 0.3613-0.1928 (   361 PWs)   bands (ev):

   -38.7552 -38.6779  -9.7505  -9.6292  -8.2867  -7.9641  -7.9411  -7.7789
    16.6930  17.2480  19.1673  20.1971  23.2325  23.3469  24.6218  26.6068

     the Fermi energy is    21.2817 ev

!    total energy              =    -224.95822790 Ry
     estimated scf accuracy    <          2.2E-09 Ry
     smearing contrib. (-TS)   =       0.00017301 Ry
     internal energy E=F+TS    =    -224.95840091 Ry

     The total energy is F=E-TS. E is the sum of the following terms:
     one-electron contribution =     -12.91583489 Ry
     hartree contribution      =      21.23020815 Ry
     xc contribution           =     -57.70388704 Ry
     ewald contribution        =    -175.56888713 Ry

     convergence has been achieved in   5 iterations

     Forces acting on atoms (cartesian axes, Ry/au):

     atom    1 type  1   force =    -0.00000000    0.00348040   -0.00000000
     atom    2 type  1   force =     0.00000000   -0.00348040    0.00000000

     Total force =     0.004922     Total SCF correction =     0.000065


     Computing stress (Cartesian axis) and pressure

          total   stress  (Ry/bohr**3)                   (kbar)     P=       17.36
   0.00014961   0.00000000  -0.00000000           22.01        0.00       -0.00
  -0.00000000   0.00000198   0.00000000           -0.00        0.29        0.00
  -0.00000000   0.00000000   0.00020249           -0.00        0.00       29.79

     Energy error            =      8.7E-04 Ry
     Gradient error          =      3.5E-03 Ry/Bohr
     Cell gradient error     =      3.0E+01 kbar

     number of scf cycles    =   6
     number of bfgs steps    =   5

     enthalpy           old  =    -224.9573532340 Ry
     enthalpy           new  =    -224.9582278980 Ry

     CASE: enthalpy          _new < enthalpy          _old

     new trust radius        =       0.0357695393 bohr
WARNING! With ibrav=0, cell_dofree='ibrav' has no effect. 

Atomic positions rescaled with new alat:
Hf               -Infinity            Infinity           -Infinity
Hf                Infinity            Infinity            Infinity
     new conv_thr            =       0.0000000348 Ry

     new unit-cell volume =    213.25107 a.u.^3 (    31.60055 Ang^3 )
     density =     18.75809 g/cm^3

CELL_PARAMETERS (alat=  4.50000000)
   1.159024612   0.000000000   0.000000000
  -0.579512306   1.033861778  -0.000000000
  -0.000000000   0.000000000   1.952983362

ATOMIC_POSITIONS (alat)
Hf           -0.0000000000        0.1086997400       -0.0000000000
Hf            0.5795123062        0.5805417670        0.9764916811



     Writing config-only to output data dir ./temp/Hf.save/
     NEW-OLD atomic charge density approx. for the potential
     extrapolated charge   24.11827, renormalised to   24.00000

     total cpu time spent up to now is       20.5 secs

     Self-consistent Calculation

     iteration #  1     ecut=    30.00 Ry     beta= 0.70
     Davidson diagonalization with overlap
     ethr =  1.00E-06,  avg # of iterations =  7.4

     total cpu time spent up to now is       21.1 secs

     total energy              =    -224.95806222 Ry
     estimated scf accuracy    <       0.00035817 Ry

     iteration #  2     ecut=    30.00 Ry     beta= 0.70
     Davidson diagonalization with overlap
     ethr =  1.49E-06,  avg # of iterations =  2.9

     total cpu time spent up to now is       21.6 secs

     total energy              =    -224.95857785 Ry
     estimated scf accuracy    <       0.00025353 Ry

     iteration #  3     ecut=    30.00 Ry     beta= 0.70
     Davidson diagonalization with overlap
     ethr =  1.06E-06,  avg # of iterations =  1.0

     total cpu time spent up to now is       21.9 secs

     total energy              =    -224.95855966 Ry
     estimated scf accuracy    <       0.00004674 Ry

     iteration #  4     ecut=    30.00 Ry     beta= 0.70
     Davidson diagonalization with overlap
     ethr =  1.95E-07,  avg # of iterations =  2.0

     total cpu time spent up to now is       22.3 secs

     total energy              =    -224.95857186 Ry
     estimated scf accuracy    <       0.00000156 Ry

     iteration #  5     ecut=    30.00 Ry     beta= 0.70
     Davidson diagonalization with overlap
     ethr =  6.48E-09,  avg # of iterations =  2.1

     total cpu time spent up to now is       22.7 secs

     total energy              =    -224.95857200 Ry
     estimated scf accuracy    <       0.00000006 Ry

     iteration #  6     ecut=    30.00 Ry     beta= 0.70
     Davidson diagonalization with overlap
     ethr =  2.56E-10,  avg # of iterations =  2.6

     total cpu time spent up to now is       23.1 secs

     End of self-consistent calculation

          k = 0.1078 0.1814 0.0640 (   357 PWs)   bands (ev):

   -39.0094 -38.7351  -9.7194  -8.6070  -8.5019  -7.9947  -7.8311  -7.7661
    15.5960  18.5577  20.2577  20.4044  22.1842  22.5392  23.9249  24.4094

          k = 0.1078 0.1814 0.1920 (   349 PWs)   bands (ev):

   -38.8804 -38.7456  -9.3965  -8.8992  -8.3253  -8.0340  -7.9334  -7.8676
    16.6299  18.1891  19.6690  20.6769  21.0176  22.1336  24.1672  24.5235

          k = 0.1078 0.4232 0.0640 (   360 PWs)   bands (ev):

   -38.8353 -38.6945  -9.6707  -9.5303  -8.7843  -8.4795  -8.2571  -8.0567
    17.8070  18.0829  19.4211  20.0678  21.9078  22.1782  23.4394  27.8960

          k = 0.1078 0.4232 0.1920 (   359 PWs)   bands (ev):

   -38.7968 -38.7202  -9.8753  -9.8267  -8.4158  -8.3466  -8.1439  -8.0724
    16.9770  17.3627  19.2106  20.4060  22.1774  23.1266  24.7113  26.1527

          k = 0.1078-0.3023 0.0640 (   359 PWs)   bands (ev):

   -38.9282 -38.6953  -9.4913  -9.1735  -8.9618  -8.2776  -7.9706  -7.9583
    17.2193  18.8549  19.3284  20.6072  21.1269  22.1186  23.5004  25.4280

          k = 0.1078-0.3023 0.1920 (   360 PWs)   bands (ev):

   -38.8442 -38.7871  -9.6213  -9.4400  -8.4356  -8.2494  -8.0533  -7.9936
    17.1612  17.9336  19.7387  20.8963  21.2137  21.5656  24.1756  25.6492

          k = 0.1078-0.0605 0.0640 (   353 PWs)   bands (ev):

   -39.0216 -38.7808  -9.9120  -8.1579  -8.0186  -7.9053  -7.7126  -7.6517
    14.4279  17.3304  21.4222  21.5069  22.5097  23.0725  23.3461  24.2199

          k = 0.1078-0.0605 0.1920 (   349 PWs)   bands (ev):

   -38.9228 -38.8265  -9.3721  -8.5647  -8.0325  -7.8931  -7.8381  -7.7517
    15.7347  17.1210  20.5615  21.1468  21.9448  22.7002  23.2126  23.5479

          k = 0.3235 0.5441 0.0640 (   363 PWs)   bands (ev):

   -38.8155 -38.6665  -9.5942  -9.2445  -9.1367  -8.8315  -8.6062  -8.0363
    17.6428  19.2171  19.3722  20.4001  21.1532  22.8750  23.9534  26.9547

          k = 0.3235 0.5441 0.1920 (   360 PWs)   bands (ev):

   -38.7420 -38.7008  -9.6411  -9.4933  -9.1333  -8.9131  -8.2364  -7.9762
    18.0271  18.9371  19.3645  19.9562  21.0507  22.3195  24.5370  25.5604

          k = 0.3235-0.1814 0.0640 (   358 PWs)   bands (ev):

   -38.8546 -38.6536  -9.6957  -9.3052  -9.1943  -8.3812  -7.9543  -7.8541
    16.7883  17.5935  18.2809  20.9161  22.9095  22.9669  23.9704  27.3559

          k = 0.3235-0.1814 0.1920 (   361 PWs)   bands (ev):

   -38.8022 -38.7547  -9.7416  -9.5298  -8.7036  -8.3763  -8.0461  -7.9853
    16.7584  17.5388  19.1637  19.5778  22.9861  24.2026  24.3507  26.4220

          k = 0.2157-0.0000-0.0640 (   357 PWs)   bands (ev):

   -38.9678 -38.7554  -9.7483  -8.6089  -8.5021  -8.1603  -7.7880  -7.7180
    15.6515  18.3698  19.8068  20.6547  21.9516  22.7799  24.3474  24.8260

          k = 0.2157-0.0000-0.1920 (   349 PWs)   bands (ev):

   -38.8619 -38.7431  -9.3225  -8.7736  -8.4157  -8.3173  -7.8845  -7.8774
    16.7185  18.0031  19.7420  20.6951  21.5597  22.3790  23.8841  24.7685

          k =-0.3235-0.3023-0.0640 (   360 PWs)   bands (ev):

   -38.8076 -38.6700  -9.7749  -9.3621  -9.1098  -8.5780  -8.2133  -7.9389
    17.1272  17.9717  18.4117  21.0443  21.8264  23.6656  23.7125  27.4797

          k = 0.4314-0.1209-0.0640 (   360 PWs)   bands (ev):

   -38.8084 -38.6611  -9.8020  -9.4030  -9.1403  -8.5854  -8.1765  -7.8998
    17.0732  17.9462  18.4349  20.7488  22.0052  23.4279  23.7581  27.3324

          k =-0.3235-0.3023-0.1920 (   359 PWs)   bands (ev):

   -38.7607 -38.7079  -9.8264  -9.6354  -8.7702  -8.5195  -8.2236  -7.9680
    17.0335  17.9784  19.0763  19.7399  21.8534  23.7134  24.8927  26.1770

          k = 0.4314-0.1209-0.1920 (   359 PWs)   bands (ev):

   -38.7386 -38.7140  -9.8251  -9.6390  -8.8044  -8.5910  -8.1673  -7.9591
    16.9919  17.8371  19.3909  19.7965  21.7110  23.5991  24.7891  26.2810

          k = 0.3235 0.0605-0.0640 (   359 PWs)   bands (ev):

   -38.8884 -38.6806  -9.5320  -9.2773  -9.0252  -8.3956  -8.0113  -7.7876
    17.1644  18.3473  18.7438  20.2969  21.7653  22.4992  23.9377  25.5045

          k =-0.2157 0.2418-0.0640 (   359 PWs)   bands (ev):

   -38.8731 -38.7190  -9.5157  -9.1459  -8.9915  -8.3473  -8.0825  -7.8612
    17.1007  18.6298  18.7971  20.4754  21.9331  23.0012  23.7052  24.9519

          k = 0.3235 0.0605-0.1920 (   360 PWs)   bands (ev):

   -38.8665 -38.7101  -9.4910  -9.3091  -8.7564  -8.5042  -8.0558  -7.9328
    17.3389  17.9950  19.5537  20.2802  21.6799  22.7017  23.5803  25.6767

          k =-0.2157 0.2418-0.1920 (   360 PWs)   bands (ev):

   -38.8416 -38.7648  -9.5536  -9.3304  -8.6014  -8.2859  -8.2127  -7.9513
    17.3603  18.2917  19.1642  20.0783  21.7892  22.5107  24.1380  25.2977

          k =-0.0000 0.1209-0.0640 (   353 PWs)   bands (ev):

   -39.0583 -38.7548  -9.9009  -8.2704  -7.9827  -7.8120  -7.7037  -7.6364
    14.3996  17.4156  20.9217  21.6583  22.5753  23.2289  23.8057  24.1581

          k =-0.0000 0.1209-0.1920 (   349 PWs)   bands (ev):

   -38.9225 -38.8389  -9.3930  -8.6349  -8.0603  -7.8516  -7.7599  -7.6877
    15.6841  17.1488  20.4749  21.0528  21.6532  22.6829  23.3290  23.5485

          k = 0.6471-0.0000-0.0640 (   363 PWs)   bands (ev):

   -38.8122 -38.6936  -9.4939  -9.3823  -8.9877  -8.7157  -8.5595  -8.2229
    18.1825  19.5267  19.7447  19.7502  21.2294  22.2819  23.7448  27.6019

          k = 0.6471-0.0000-0.1920 (   360 PWs)   bands (ev):

   -38.7702 -38.6917  -9.6756  -9.6605  -8.9417  -8.7439  -8.2094  -8.0448
    18.0051  18.3683  19.8336  19.9266  21.9461  22.0691  24.1153  25.3103

          k =-0.0000 0.3627-0.0640 (   358 PWs)   bands (ev):

   -38.9079 -38.6631  -9.6207  -9.4107  -8.9665  -8.1942  -8.1349  -7.8068
    17.0453  17.8964  19.5416  20.1995  21.9757  22.4576  23.3200  28.0122

          k =-0.0000 0.3627-0.1920 (   361 PWs)   bands (ev):

   -38.8423 -38.7760  -9.8307  -9.7157  -8.4038  -8.0981  -8.0834  -7.9235
    16.6017  17.1660  19.0989  20.0857  23.1155  23.3070  24.4411  26.4304

     the Fermi energy is    21.1874 ev

!    total energy              =    -224.95857201 Ry
     estimated scf accuracy    <          2.1E-09 Ry
     smearing contrib. (-TS)   =       0.00100930 Ry
     internal energy E=F+TS    =    -224.95958131 Ry

     The total energy is F=E-TS. E is the sum of the following terms:
     one-electron contribution =     -13.27247667 Ry
     hartree contribution      =      21.31009478 Ry
     xc contribution           =     -57.69042148 Ry
     ewald contribution        =    -175.30677793 Ry

     convergence has been achieved in   6 iterations

     Forces acting on atoms (cartesian axes, Ry/au):

     atom    1 type  1   force =    -0.00000000    0.00099242   -0.00000000
     atom    2 type  1   force =     0.00000000   -0.00099242    0.00000000

     Total force =     0.001403     Total SCF correction =     0.000001


     Computing stress (Cartesian axis) and pressure

          total   stress  (Ry/bohr**3)                   (kbar)     P=        5.01
   0.00001628  -0.00000000  -0.00000000            2.39       -0.00       -0.00
  -0.00000000   0.00002252   0.00000000           -0.00        3.31        0.00
   0.00000000  -0.00000000   0.00006341            0.00       -0.00        9.33

     Energy error            =      3.4E-04 Ry
     Gradient error          =      9.9E-04 Ry/Bohr
     Cell gradient error     =      9.3E+00 kbar

     number of scf cycles    =   7
     number of bfgs steps    =   6

     enthalpy           old  =    -224.9582278980 Ry
     enthalpy           new  =    -224.9585720113 Ry

     CASE: enthalpy          _new < enthalpy          _old

     new trust radius        =       0.0110257772 bohr
WARNING! With ibrav=0, cell_dofree='ibrav' has no effect. 

Atomic positions rescaled with new alat:
Hf               -Infinity            Infinity           -Infinity
Hf                Infinity            Infinity            Infinity
     new conv_thr            =       0.0000000100 Ry

     new unit-cell volume =    213.60255 a.u.^3 (    31.65263 Ang^3 )
     density =     18.72722 g/cm^3

CELL_PARAMETERS (alat=  4.50000000)
   1.159961514   0.000000000   0.000000000
  -0.579980757   1.033256498  -0.000000000
  -0.000000000   0.000000000   1.955767197

ATOMIC_POSITIONS (alat)
Hf           -0.0000000000        0.1110848393       -0.0000000000
Hf            0.5799807570        0.5777531473        0.9778835987



     Writing config-only to output data dir ./temp/Hf.save/
     NEW-OLD atomic charge density approx. for the potential
     extrapolated charge   24.03948, renormalised to   24.00000

     total cpu time spent up to now is       24.0 secs

     Self-consistent Calculation

     iteration #  1     ecut=    30.00 Ry     beta= 0.70
     Davidson diagonalization with overlap
     ethr =  1.00E-06,  avg # of iterations =  4.7

     total cpu time spent up to now is       24.5 secs

     total energy              =    -224.95853729 Ry
     estimated scf accuracy    <       0.00003927 Ry

     iteration #  2     ecut=    30.00 Ry     beta= 0.70
     Davidson diagonalization with overlap
     ethr =  1.64E-07,  avg # of iterations =  3.1

     total cpu time spent up to now is       24.9 secs

     total energy              =    -224.95859600 Ry
     estimated scf accuracy    <       0.00002820 Ry

     iteration #  3     ecut=    30.00 Ry     beta= 0.70
     Davidson diagonalization with overlap
     ethr =  1.17E-07,  avg # of iterations =  1.5

[...]

          k =-0.0000 0.3629-0.0639 (   358 PWs)   bands (ev):

   -38.9392 -38.7029  -9.6566  -9.4447  -8.9990  -8.2375  -8.1845  -7.8537
    17.0085  17.8413  19.4819  20.1542  21.9695  22.4258  23.2808  27.9665

          k =-0.0000 0.3629-0.1917 (   361 PWs)   bands (ev):

   -38.8757 -38.8136  -9.8597  -9.7460  -8.4486  -8.1488  -8.1278  -7.9693
    16.5681  17.1377  19.0709  20.0366  23.0604  23.2824  24.4000  26.3862

     the Fermi energy is    21.1512 ev

!    total energy              =    -224.95859671 Ry
     estimated scf accuracy    <          8.7E-11 Ry
     smearing contrib. (-TS)   =       0.00120355 Ry
     internal energy E=F+TS    =    -224.95980026 Ry

     The total energy is F=E-TS. E is the sum of the following terms:
     one-electron contribution =     -13.40413956 Ry
     hartree contribution      =      21.33919569 Ry
     xc contribution           =     -57.68532081 Ry
     ewald contribution        =    -175.20953559 Ry

     convergence has been achieved in   4 iterations

     Forces acting on atoms (cartesian axes, Ry/au):

     atom    1 type  1   force =    -0.00000000    0.00000321   -0.00000000
     atom    2 type  1   force =     0.00000000   -0.00000321    0.00000000

     Total force =     0.000005     Total SCF correction =     0.000006
     SCF correction compared to forces is large: reduce conv_thr to get better values


     Computing stress (Cartesian axis) and pressure

          total   stress  (Ry/bohr**3)                   (kbar)     P=        0.10
   0.00000022  -0.00000000  -0.00000000            0.03       -0.00       -0.00
  -0.00000000   0.00000072   0.00000000           -0.00        0.11        0.00
   0.00000000  -0.00000000   0.00000111            0.00       -0.00        0.16

     Energy error            =      7.5E-08 Ry
     Gradient error          =      3.2E-06 Ry/Bohr
     Cell gradient error     =      1.6E-01 kbar
WARNING! With ibrav=0, cell_dofree='ibrav' has no effect. 

Atomic positions rescaled with new alat:
Hf               -Infinity            Infinity           -Infinity
Hf                Infinity            Infinity            Infinity

     bfgs converged in  10 scf cycles and   9 bfgs steps
     (criteria: energy <  1.0E-04 Ry, force <  1.0E-03Ry/Bohr, cell <  5.0E-01kbar)

     End of BFGS Geometry Optimization

     Final enthalpy           =    -224.9585967134 Ry

     File ./temp/Hf.bfgs deleted, as requested
Begin final coordinates
     new unit-cell volume =    213.64393 a.u.^3 (    31.65876 Ang^3 )
     density =     18.72360 g/cm^3

CELL_PARAMETERS (alat=  4.50000000)
   1.159706747   0.000000000   0.000000000
  -0.579853374   1.033373448  -0.000000000
  -0.000000000   0.000000000   1.956354431

ATOMIC_POSITIONS (alat)
Hf           -0.0000000000        0.1116856266       -0.0000000000
Hf            0.5798533735        0.5772303266        0.9781772155
End final coordinates



     Writing config-only to output data dir ./temp/Hf.save/

     Final scf calculation at the relaxed structure.
     The G-vectors are recalculated for the final unit cell
     Results may differ from those at the preceding step.

     G-vector sticks info
     --------------------
     sticks:   dense  smooth     PW     G-vecs:    dense   smooth      PW
     Sum         293     233     85                 6619     4719     961

     Using Slab Decomposition



     bravais-lattice index     =            0
     lattice parameter (alat)  =       4.5000  a.u.
     unit-cell volume          =     213.6439 (a.u.)^3
     number of atoms/cell      =            2
     number of atomic types    =            1
     number of electrons       =        24.00
     number of Kohn-Sham states=           16
     kinetic-energy cutoff     =      30.0000  Ry
     charge density cutoff     =     150.0000  Ry
     scf convergence threshold =      1.0E-08
     mixing beta               =       0.7000
     number of iterations used =            8  plain     mixing
     press convergence thresh. =      5.0E-01
     Exchange-correlation= PBE
                           (   1   4   3   4   0   0   0)

     celldm(1)=   4.500000  celldm(2)=   0.000000  celldm(3)=   0.000000
     celldm(4)=   0.000000  celldm(5)=   0.000000  celldm(6)=   0.000000

     crystal axes: (cart. coord. in units of alat)
               a(1) = (   1.159707   0.000000   0.000000 )  
               a(2) = (  -0.579853   1.033373  -0.000000 )  
               a(3) = (  -0.000000   0.000000   1.956354 )  

     reciprocal axes: (cart. coord. in units 2 pi/alat)
               b(1) = (  0.862287  0.483852 -0.000000 )  
               b(2) = ( -0.000000  0.967704 -0.000000 )  
               b(3) = ( -0.000000  0.000000  0.511155 )  


     PseudoPot. # 1 for Hf read from file:
     /Users/vinhtran/Documents/GitHub/DFT/pseudos/Hf-sp.oncvpsp.upf
     MD5 check sum: 417ed15784afe83d2e06dacf143de3f8
     Pseudo is Norm-conserving + core correction, Zval = 12.0
     Generated using ONCVPSP code by D. R. Hamann
     Using radial grid of 1656 points,  8 beta functions with: 
                l(1) =   0
                l(2) =   0
                l(3) =   1
                l(4) =   1
                l(5) =   2
                l(6) =   2
                l(7) =   3
                l(8) =   3

     atomic species   valence    mass     pseudopotential
        Hf            12.00   178.48600     Hf( 1.00)

      8 Sym. Ops., with inversion, found ( 4 have fractional translation)



   Cartesian axes

     site n.     atom                  positions (alat units)
         1           Hf  tau(   1) = (  -0.0000000   0.1116856  -0.0000000  )
         2           Hf  tau(   2) = (   0.5798534   0.5772303   0.9781772  )

     number of k points=    28  Methfessel-Paxton smearing, width (Ry)=  0.1000
                       cart. coord. in units 2pi/alat
        k(    1) = (   0.1077859   0.1814446   0.0638944), wk =   0.0833333
        k(    2) = (   0.1077859   0.1814446   0.1916831), wk =   0.0833333
        k(    3) = (   0.1077859   0.4233707   0.0638944), wk =   0.0833333
        k(    4) = (   0.1077859   0.4233707   0.1916831), wk =   0.0833333
        k(    5) = (   0.1077859  -0.3024076   0.0638944), wk =   0.0833333
        k(    6) = (   0.1077859  -0.3024076   0.1916831), wk =   0.0833333
        k(    7) = (   0.1077859  -0.0604815   0.0638944), wk =   0.0833333
        k(    8) = (   0.1077859  -0.0604815   0.1916831), wk =   0.0833333
        k(    9) = (   0.3233576   0.5443337   0.0638944), wk =   0.0833333
        k(   10) = (   0.3233576   0.5443337   0.1916831), wk =   0.0833333
        k(   11) = (   0.3233576  -0.1814446   0.0638944), wk =   0.0833333
        k(   12) = (   0.3233576  -0.1814446   0.1916831), wk =   0.0833333
        k(   13) = (   0.2155717  -0.0000000  -0.0638944), wk =   0.0416667
        k(   14) = (   0.2155717  -0.0000000  -0.1916831), wk =   0.0416667
        k(   15) = (  -0.3233576  -0.3024076  -0.0638944), wk =   0.0833333
        k(   16) = (   0.4311435  -0.1209630  -0.0638944), wk =   0.0833333
        k(   17) = (  -0.3233576  -0.3024076  -0.1916831), wk =   0.0833333
        k(   18) = (   0.4311435  -0.1209630  -0.1916831), wk =   0.0833333
        k(   19) = (   0.3233576   0.0604815  -0.0638944), wk =   0.0833333
        k(   20) = (  -0.2155717   0.2419261  -0.0638944), wk =   0.0833333
        k(   21) = (   0.3233576   0.0604815  -0.1916831), wk =   0.0833333
        k(   22) = (  -0.2155717   0.2419261  -0.1916831), wk =   0.0833333
        k(   23) = (  -0.0000000   0.1209630  -0.0638944), wk =   0.0416667
        k(   24) = (  -0.0000000   0.1209630  -0.1916831), wk =   0.0416667
        k(   25) = (   0.6467152  -0.0000000  -0.0638944), wk =   0.0416667
        k(   26) = (   0.6467152  -0.0000000  -0.1916831), wk =   0.0416667
        k(   27) = (  -0.0000000   0.3628891  -0.0638944), wk =   0.0416667
        k(   28) = (  -0.0000000   0.3628891  -0.1916831), wk =   0.0416667

     Dense  grid:     6619 G-vectors     FFT dimensions: (  24,  24,  36)

     Smooth grid:     4719 G-vectors     FFT dimensions: (  24,  24,  32)

     Estimated max dynamical RAM per process >      14.34 MB

     Initial potential from superposition of free atoms

     starting charge      23.9963, renormalised to      24.0000
     Starting wfcs are   20 randomized atomic wfcs

     total cpu time spent up to now is       33.4 secs

     Self-consistent Calculation

     iteration #  1     ecut=    30.00 Ry     beta= 0.70
     Davidson diagonalization with overlap
     c_bands:  1 eigenvalues not converged
     c_bands:  1 eigenvalues not converged
     c_bands:  1 eigenvalues not converged
     ethr =  1.00E-06,  avg # of iterations = 13.4

     total cpu time spent up to now is       34.9 secs

     total energy              =    -225.33979844 Ry
     estimated scf accuracy    <       0.02437209 Ry

     iteration #  2     ecut=    30.00 Ry     beta= 0.70
     Davidson diagonalization with overlap
     ethr =  1.02E-04,  avg # of iterations =  2.0

     total cpu time spent up to now is       35.7 secs

     total energy              =    -225.34387040 Ry
     estimated scf accuracy    <       0.00050329 Ry

     iteration #  3     ecut=    30.00 Ry     beta= 0.70
     Davidson diagonalization with overlap
     ethr =  2.10E-06,  avg # of iterations =  2.2

     total cpu time spent up to now is       36.4 secs

     total energy              =    -225.34393137 Ry
     estimated scf accuracy    <       0.00003003 Ry

     iteration #  4     ecut=    30.00 Ry     beta= 0.70
     Davidson diagonalization with overlap
     ethr =  1.25E-07,  avg # of iterations =  2.6

     total cpu time spent up to now is       37.1 secs

     total energy              =    -225.34393462 Ry
     estimated scf accuracy    <       0.00000047 Ry

     iteration #  5     ecut=    30.00 Ry     beta= 0.70
     Davidson diagonalization with overlap
     ethr =  1.96E-09,  avg # of iterations =  4.2

     total cpu time spent up to now is       37.9 secs

     total energy              =    -225.34393486 Ry
     estimated scf accuracy    <       0.00000001 Ry

     iteration #  6     ecut=    30.00 Ry     beta= 0.70
     Davidson diagonalization with overlap
     ethr =  4.64E-11,  avg # of iterations =  3.0

     total cpu time spent up to now is       38.7 secs

     End of self-consistent calculation

          k = 0.1078 0.1814 0.0639 (   593 PWs)   bands (ev):

   -39.7651 -39.5467  -9.6653  -8.5743  -8.4864  -7.9791  -7.8111  -7.7434
    15.2237  18.4040  20.1998  20.3202  22.1353  22.4409  23.8708  24.3235

          k = 0.1078 0.1814 0.1917 (   597 PWs)   bands (ev):

   -39.7088 -39.6127  -9.3539  -8.8687  -8.3036  -8.0146  -7.9145  -7.8514
    16.2808  17.9204  19.5962  20.6029  20.9594  22.0520  24.0856  24.4439

          k = 0.1078 0.4234 0.0639 (   595 PWs)   bands (ev):

   -39.5726 -39.5038  -9.6364  -9.4865  -8.7324  -8.4667  -8.2451  -8.0445
    17.6628  17.9696  19.3021  19.9742  21.8464  22.1072  23.3534  27.8518

          k = 0.1078 0.4234 0.1917 (   592 PWs)   bands (ev):

   -39.5465 -39.5231  -9.8327  -9.7814  -8.4050  -8.3199  -8.1253  -8.0471
    16.8396  17.2461  19.1565  20.3308  22.0732  23.0514  24.6169  26.0598

          k = 0.1078-0.3024 0.0639 (   597 PWs)   bands (ev):

   -39.6736 -39.5114  -9.4439  -9.1417  -8.9338  -8.2631  -7.9519  -7.9429
    16.9210  18.7632  19.2371  20.5274  21.0660  22.0252  23.4008  25.3746

          k = 0.1078-0.3024 0.1917 (   592 PWs)   bands (ev):

   -39.6164 -39.5515  -9.5742  -9.3991  -8.4077  -8.2351  -8.0394  -7.9688
    16.9529  17.7956  19.6578  20.8094  21.0976  21.5036  24.0772  25.5657

          k = 0.1078-0.0605 0.0639 (   594 PWs)   bands (ev):

   -39.8246 -39.5833  -9.8588  -8.1315  -7.9987  -7.8970  -7.6889  -7.6268
    14.0181  17.1461  21.3676  21.4309  22.4601  23.0090  23.2670  24.1489

          k = 0.1078-0.0605 0.1917 (   605 PWs)   bands (ev):

   -39.7737 -39.6653  -9.3334  -8.5402  -8.0167  -7.8806  -7.8223  -7.7316
    15.3444  16.8328  20.4769  21.0754  21.8738  22.6258  23.1384  23.4855

          k = 0.3234 0.5443 0.0639 (   586 PWs)   bands (ev):

   -39.5384 -39.4436  -9.5610  -9.2151  -9.0919  -8.7857  -8.5746  -8.0254
    17.5865  19.1096  19.2938  20.3180  21.0936  22.7565  23.8938  26.9199

          k = 0.3234 0.5443 0.1917 (   586 PWs)   bands (ev):

   -39.5070 -39.4752  -9.6050  -9.4638  -9.0959  -8.8771  -8.2030  -7.9545
    17.9359  18.8402  19.3236  19.8802  20.9854  22.2133  24.4418  25.4630

          k = 0.3234-0.1814 0.0639 (   589 PWs)   bands (ev):

   -39.6333 -39.4550  -9.6606  -9.2697  -9.1510  -8.3457  -7.9287  -7.8401
    16.6069  17.5027  18.1919  20.8097  22.8269  22.9023  23.8245  27.2736

          k = 0.3234-0.1814 0.1917 (   589 PWs)   bands (ev):

   -39.5855 -39.5031  -9.7065  -9.4989  -8.6555  -8.3397  -8.0268  -7.9672
    16.6084  17.4233  19.0768  19.5302  22.8976  24.0637  24.2417  26.3327

          k = 0.2156-0.0000-0.0639 (   602 PWs)   bands (ev):

   -39.7788 -39.5414  -9.6939  -8.5960  -8.4913  -8.1333  -7.7657  -7.7004
    15.2700  18.2255  19.7587  20.5740  21.9008  22.7173  24.2653  24.7208

          k = 0.2156-0.0000-0.1917 (   602 PWs)   bands (ev):

   -39.7053 -39.6137  -9.2865  -8.7615  -8.3991  -8.2765  -7.8670  -7.8552
    16.3734  17.7645  19.6612  20.6225  21.4860  22.3002  23.8015  24.6937

          k =-0.3234-0.3024-0.0639 (   593 PWs)   bands (ev):

   -39.5903 -39.4531  -9.7409  -9.3374  -9.0522  -8.5490  -8.1903  -7.9261
    17.0191  17.8937  18.2978  20.9372  21.7637  23.5370  23.6279  27.3989

          k = 0.4311-0.1210-0.0639 (   588 PWs)   bands (ev):

   -39.5841 -39.4375  -9.7661  -9.3733  -9.0824  -8.5532  -8.1502  -7.8887
    16.9796  17.8652  18.3147  20.6392  21.9337  23.3436  23.6420  27.3038

          k =-0.3234-0.3024-0.1917 (   593 PWs)   bands (ev):

   -39.5552 -39.4876  -9.7940  -9.6083  -8.7260  -8.4837  -8.2024  -7.9491
    16.9154  17.8722  19.0094  19.6934  21.7521  23.5895  24.7965  26.0758

          k = 0.4311-0.1210-0.1917 (   583 PWs)   bands (ev):

   -39.5329 -39.4738  -9.7902  -9.6096  -8.7527  -8.5489  -8.1424  -7.9378
    16.8785  17.7406  19.3173  19.7362  21.6266  23.4892  24.6765  26.1666

          k = 0.3234 0.0605-0.0639 (   597 PWs)   bands (ev):

   -39.6745 -39.4779  -9.4862  -9.2485  -9.0010  -8.3626  -7.9855  -7.7766
    16.8962  18.2887  18.6524  20.2329  21.6748  22.4048  23.8311  25.4424

          k =-0.2156 0.2419-0.0639 (   597 PWs)   bands (ev):

   -39.6811 -39.4885  -9.4676  -9.1232  -8.9589  -8.3238  -8.0614  -7.8449
    16.8190  18.5511  18.7183  20.4113  21.8505  22.8752  23.5887  24.8782

          k = 0.3234 0.0605-0.1917 (   590 PWs)   bands (ev):

   -39.6091 -39.5234  -9.4574  -9.2841  -8.7105  -8.4613  -8.0332  -7.9162
    17.1573  17.8703  19.4581  20.2218  21.6063  22.5978  23.4540  25.5786

          k =-0.2156 0.2419-0.1917 (   591 PWs)   bands (ev):

   -39.6140 -39.5351  -9.5130  -9.2990  -8.5665  -8.2574  -8.1923  -7.9298
    17.1558  18.1407  19.1021  20.0337  21.6826  22.3843  24.0308  25.2129

          k =-0.0000 0.1210-0.0639 (   597 PWs)   bands (ev):

   -39.8380 -39.5850  -9.8497  -8.2353  -7.9644  -7.8034  -7.6815  -7.6256
    13.9852  17.2215  20.8847  21.5906  22.4648  23.1778  23.7212  24.1026

          k =-0.0000 0.1210-0.1917 (   603 PWs)   bands (ev):

   -39.7738 -39.6662  -9.3530  -8.6060  -8.0360  -7.8296  -7.7533  -7.6822
    15.2939  16.8539  20.4042  20.9682  21.5898  22.6117  23.2598  23.4831

          k = 0.6467-0.0000-0.0639 (   581 PWs)   bands (ev):

   -39.5247 -39.4570  -9.4553  -9.3332  -8.9621  -8.6570  -8.5367  -8.2160
    18.0973  19.4633  19.6341  19.6671  21.1824  22.1748  23.6807  27.5659

          k = 0.6467-0.0000-0.1917 (   580 PWs)   bands (ev):

   -39.5041 -39.4763  -9.6271  -9.6162  -8.9194  -8.7218  -8.1689  -8.0191
    17.8965  18.2678  19.7829  19.8582  21.8789  21.9615  24.0344  25.2195

          k =-0.0000 0.3629-0.0639 (   599 PWs)   bands (ev):

   -39.6345 -39.5222  -9.5847  -9.3727  -8.9271  -8.1877  -8.1145  -7.7959
    16.8379  17.7528  19.4248  20.1135  21.9143  22.3753  23.2402  27.9173

          k =-0.0000 0.3629-0.1917 (   592 PWs)   bands (ev):

   -39.5873 -39.5442  -9.7849  -9.6721  -8.3731  -8.0766  -8.0701  -7.9115
    16.4315  17.0315  19.0457  20.0057  22.9859  23.2084  24.3755  26.3795

     the Fermi energy is    21.1112 ev

!    total energy              =    -225.34393486 Ry
     estimated scf accuracy    <          5.5E-10 Ry
     smearing contrib. (-TS)   =       0.00081034 Ry
     internal energy E=F+TS    =    -225.34474520 Ry

     The total energy is F=E-TS. E is the sum of the following terms:
     one-electron contribution =     -13.90590139 Ry
     hartree contribution      =      21.52037874 Ry
     xc contribution           =     -57.74970995 Ry
     ewald contribution        =    -175.20951260 Ry

     convergence has been achieved in   6 iterations

     Forces acting on atoms (cartesian axes, Ry/au):

     atom    1 type  1   force =    -0.00000000    0.00246746   -0.00000000
     atom    2 type  1   force =     0.00000000   -0.00246746    0.00000000

     Total force =     0.003490     Total SCF correction =     0.000004


     Computing stress (Cartesian axis) and pressure

          total   stress  (Ry/bohr**3)                   (kbar)     P=      297.56
   0.00181837   0.00000000  -0.00000000          267.49        0.00       -0.00
  -0.00000000   0.00209948   0.00000000           -0.00      308.84        0.00
  -0.00000000   0.00000000   0.00215054           -0.00        0.00      316.36


     Writing all to output data dir ./temp/Hf.save/

     init_run     :      0.99s CPU      1.00s WALL (       2 calls)
     electrons    :     29.12s CPU     29.74s WALL (      11 calls)
     update_pot   :      2.48s CPU      2.49s WALL (       9 calls)
     forces       :      2.01s CPU      2.04s WALL (      11 calls)
     stress       :      4.13s CPU      4.18s WALL (      11 calls)

     Called by init_run:
     wfcinit      :      0.30s CPU      0.31s WALL (       2 calls)
     potinit      :      0.28s CPU      0.29s WALL (       2 calls)
     hinit0       :      0.40s CPU      0.40s WALL (       2 calls)

     Called by electrons:
     c_bands      :     25.72s CPU     26.29s WALL (      61 calls)
     sum_band     :      3.14s CPU      3.17s WALL (      61 calls)
     v_of_rho     :      0.26s CPU      0.26s WALL (      69 calls)
     mix_rho      :      0.02s CPU      0.02s WALL (      61 calls)

     Called by c_bands:
     init_us_2    :      0.86s CPU      0.87s WALL (    4088 calls)
     init_us_2:cp :      0.86s CPU      0.87s WALL (    4088 calls)
     cegterg      :     16.04s CPU     16.55s WALL (    1708 calls)

     Called by *egterg:
     cdiaghg      :      1.32s CPU      1.33s WALL (    6928 calls)
     h_psi        :     13.56s CPU     13.89s WALL (    7320 calls)
     g_psi        :      0.20s CPU      0.20s WALL (    5556 calls)

     Called by h_psi:
     h_psi:calbec :      0.36s CPU      0.49s WALL (    7320 calls)
     vloc_psi     :     12.79s CPU     12.92s WALL (    7320 calls)
     add_vuspsi   :      0.35s CPU      0.42s WALL (    7320 calls)

     General routines
     calbec       :      0.43s CPU      0.60s WALL (    8860 calls)
     fft          :      0.10s CPU      0.10s WALL (    1082 calls)
     ffts         :      0.01s CPU      0.01s WALL (     130 calls)
     fftw         :      7.72s CPU      7.80s WALL (  201444 calls)
     interpolate  :      0.01s CPU      0.02s WALL (      69 calls)

     Parallel routines

     PWSCF        :     38.83s CPU     39.58s WALL


   This run was terminated on:  21:13: 6  21Mar2022            

=------------------------------------------------------------------------------=
   JOB DONE.
=------------------------------------------------------------------------------=
