
     Program PWSCF v.7.0 starts on 21Mar2022 at 20:50:16 

     This program is part of the open-source Quantum ESPRESSO suite
     for quantum simulation of materials; please cite
         "P. Giannozzi et al., J. Phys.:Condens. Matter 21 395502 (2009);
         "P. Giannozzi et al., J. Phys.:Condens. Matter 29 465901 (2017);
         "P. Giannozzi et al., J. Chem. Phys. 152 154105 (2020);
          URL http://www.quantum-espresso.org", 
     in publications or presentations arising from this work. More details at
     http://www.quantum-espresso.org/quote

     Parallel version (MPI), running on     1 processors

     MPI processes distributed on     1 nodes
     0 MiB available memory on the printing compute node when the environment starts

     Reading input from Hf.sci.in

     Current dimensions of program PWSCF are:
     Max number of different atomic species (ntypx) = 10
     Max number of k-points (npk) =  40000
     Max angular momentum in pseudopotentials (lmaxx) =  4
     Message from routine setup:
     using ibrav=0 with symmetry is DISCOURAGED, use correct ibrav instead

     Subspace diagonalization in iterative solution of the eigenvalue problem:
     a serial algorithm will be used


     G-vector sticks info
     --------------------
     sticks:   dense  smooth     PW     G-vecs:    dense   smooth      PW
     Sum         253     199     73                 5515     3935     833

     Using Slab Decomposition



     bravais-lattice index     =            0
     lattice parameter (alat)  =       5.0000  a.u.
     unit-cell volume          =     176.7774 (a.u.)^3
     number of atoms/cell      =            2
     number of atomic types    =            1
     number of electrons       =        24.00
     number of Kohn-Sham states=           16
     kinetic-energy cutoff     =      30.0000  Ry
     charge density cutoff     =     150.0000  Ry
     scf convergence threshold =      1.0E-06
     mixing beta               =       0.7000
     number of iterations used =            8  plain     mixing
     energy convergence thresh.=      1.0E-04
     force convergence thresh. =      1.0E-03
     press convergence thresh. =      5.0E-01
     Exchange-correlation= PBE
                           (   1   4   3   4   0   0   0)
     nstep                     =           50


     celldm(1)=   5.000000  celldm(2)=   0.000000  celldm(3)=   0.000000
     celldm(4)=   0.000000  celldm(5)=   0.000000  celldm(6)=   0.000000

     crystal axes: (cart. coord. in units of alat)
               a(1) = (   1.000000   0.000000   0.000000 )  
               a(2) = (   0.500000   0.866025   0.000000 )  
               a(3) = (   0.000000   0.000000   1.633000 )  

     reciprocal axes: (cart. coord. in units 2 pi/alat)
               b(1) = (  1.000000 -0.577351  0.000000 )  
               b(2) = (  0.000000  1.154701  0.000000 )  
               b(3) = (  0.000000  0.000000  0.612370 )  


     PseudoPot. # 1 for Hf read from file:
     /Users/vinhtran/Documents/GitHub/DFT/pseudos/Hf-sp.oncvpsp.upf
     MD5 check sum: 417ed15784afe83d2e06dacf143de3f8
     Pseudo is Norm-conserving + core correction, Zval = 12.0
     Generated using ONCVPSP code by D. R. Hamann
     Using radial grid of 1656 points,  8 beta functions with: 
                l(1) =   0
                l(2) =   0
                l(3) =   1
                l(4) =   1
                l(5) =   2
                l(6) =   2
                l(7) =   3
                l(8) =   3

     atomic species   valence    mass     pseudopotential
        Hf            12.00   178.48600     Hf( 1.00)

      6 Sym. Ops. (no inversion) found



   Cartesian axes

     site n.     atom                  positions (alat units)
         1           Hf  tau(   1) = (   0.0000000   0.0000000   0.0000000  )
         2           Hf  tau(   2) = (   0.4999950   0.2886721   0.5443279  )

     number of k points=    13  Methfessel-Paxton smearing, width (Ry)=  0.0600
                       cart. coord. in units 2pi/alat
        k(    1) = (   0.0000000   0.0000000   0.0000000), wk =   0.0312500
        k(    2) = (   0.0000000   0.0000000   0.1530925), wk =   0.0625000
        k(    3) = (   0.0000000   0.0000000  -0.3061849), wk =   0.0312500
        k(    4) = (   0.0000000   0.2886753   0.0000000), wk =   0.1875000
        k(    5) = (   0.0000000   0.2886753   0.1530925), wk =   0.1875000
        k(    6) = (   0.0000000   0.2886753  -0.3061849), wk =   0.1875000
        k(    7) = (   0.0000000  -0.5773505   0.0000000), wk =   0.0937500
        k(    8) = (   0.0000000  -0.5773505   0.1530925), wk =   0.1875000
        k(    9) = (   0.0000000  -0.5773505  -0.3061849), wk =   0.0937500
        k(   10) = (   0.2500000  -0.7216882   0.0000000), wk =   0.1875000
        k(   11) = (   0.2500000  -0.7216882   0.1530925), wk =   0.3750000
        k(   12) = (   0.2500000  -0.7216882  -0.3061849), wk =   0.1875000
        k(   13) = (   0.0000000  -0.2886753   0.1530925), wk =   0.1875000

     Dense  grid:     5515 G-vectors     FFT dimensions: (  20,  20,  32)

     Smooth grid:     3935 G-vectors     FFT dimensions: (  18,  18,  30)

     Estimated max dynamical RAM per process >      10.58 MB

     Initial potential from superposition of free atoms

     starting charge      23.9963, renormalised to      24.0000
     Starting wfcs are   20 randomized atomic wfcs

     total cpu time spent up to now is        0.4 secs

     Self-consistent Calculation

     iteration #  1     ecut=    30.00 Ry     beta= 0.70
     Davidson diagonalization with overlap
     ethr =  1.00E-02,  avg # of iterations =  2.4

     total cpu time spent up to now is        0.7 secs

     total energy              =    -224.22156015 Ry
     estimated scf accuracy    <       0.53115789 Ry

     iteration #  2     ecut=    30.00 Ry     beta= 0.70
     Davidson diagonalization with overlap
     ethr =  2.21E-03,  avg # of iterations =  2.5

     total cpu time spent up to now is        0.9 secs

     total energy              =    -224.35369364 Ry
     estimated scf accuracy    <       0.70351634 Ry

     iteration #  3     ecut=    30.00 Ry     beta= 0.70
     Davidson diagonalization with overlap
     ethr =  2.21E-03,  avg # of iterations =  2.0

     total cpu time spent up to now is        1.2 secs

     total energy              =    -224.48274792 Ry
     estimated scf accuracy    <       0.00084048 Ry

     iteration #  4     ecut=    30.00 Ry     beta= 0.70
     Davidson diagonalization with overlap
     ethr =  3.50E-06,  avg # of iterations =  7.0

     total cpu time spent up to now is        1.5 secs

     total energy              =    -224.48462687 Ry
     estimated scf accuracy    <       0.00105361 Ry

     iteration #  5     ecut=    30.00 Ry     beta= 0.70
     Davidson diagonalization with overlap
     ethr =  3.50E-06,  avg # of iterations =  2.0

     total cpu time spent up to now is        1.8 secs

     total energy              =    -224.48473809 Ry
     estimated scf accuracy    <       0.00005286 Ry

     iteration #  6     ecut=    30.00 Ry     beta= 0.70
     Davidson diagonalization with overlap
     ethr =  2.20E-07,  avg # of iterations =  2.2

     total cpu time spent up to now is        2.0 secs

     total energy              =    -224.48474556 Ry
     estimated scf accuracy    <       0.00005112 Ry

     iteration #  7     ecut=    30.00 Ry     beta= 0.70
     Davidson diagonalization with overlap
     ethr =  2.13E-07,  avg # of iterations =  1.9

     total cpu time spent up to now is        2.2 secs

     total energy              =    -224.48475334 Ry
     estimated scf accuracy    <       0.00000113 Ry

     iteration #  8     ecut=    30.00 Ry     beta= 0.70
     Davidson diagonalization with overlap
     ethr =  4.72E-09,  avg # of iterations =  2.8

     total cpu time spent up to now is        2.5 secs

     End of self-consistent calculation

          k = 0.0000 0.0000 0.0000 (   525 PWs)   bands (ev):

   -37.7016 -34.8402  -7.9647  -5.2119  -5.2116  -2.6629  -2.6628  -2.5093
    18.0452  18.8308  23.5617  23.5617  25.0066  25.0067  25.3088  32.5708

          k = 0.0000 0.0000 0.1531 (   506 PWs)   bands (ev):

   -37.6841 -34.8079  -7.8145  -5.1925  -5.1923  -2.7392  -2.6650  -2.6649
    18.6420  19.1425  23.4817  23.4817  23.9724  24.9128  24.9129  33.0720

          k = 0.0000 0.0000-0.3062 (   494 PWs)   bands (ev):

   -37.6688 -34.7983  -7.6538  -5.1800  -5.1797  -2.9701  -2.6727  -2.6726
    18.9954  20.2501  22.1882  23.4170  23.4170  24.7990  24.7991  33.7229

          k = 0.0000 0.2887 0.0000 (   482 PWs)   bands (ev):

   -37.1260 -34.9159  -8.1184  -7.5305  -5.9845  -3.5523  -2.5298  -1.8680
    19.1368  20.8109  22.8244  24.5654  25.9134  26.6167  27.3299  30.1707

          k = 0.0000 0.2887 0.1531 (   490 PWs)   bands (ev):

   -37.1291 -34.9468  -8.1375  -7.4888  -5.9804  -3.5623  -2.5512  -1.8985
    19.1647  21.7421  22.6379  23.6721  25.8914  26.5855  27.5114  28.8582

          k = 0.0000 0.2887-0.3062 (   498 PWs)   bands (ev):

   -37.1373 -34.9649  -8.0644  -7.5863  -5.9685  -3.4163  -2.5754  -2.0262
    19.3714  20.6367  22.8666  24.6478  26.2394  26.3873  27.5196  29.1893

          k = 0.0000-0.5774 0.0000 (   476 PWs)   bands (ev):

   -36.3061 -35.3579  -9.3598  -8.3179  -6.5979  -3.1413  -2.7457  -2.5538
    17.3837  22.3346  23.1809  25.6646  26.9980  28.2649  31.8541  33.6112

          k = 0.0000-0.5774 0.1531 (   482 PWs)   bands (ev):

   -36.3162 -35.3617  -9.4017  -8.3591  -6.5864  -3.0545  -2.6988  -2.5780
    17.5362  21.7079  24.1971  25.2076  26.1055  29.8839  31.0659  33.5740

          k = 0.0000-0.5774-0.3062 (   496 PWs)   bands (ev):

   -36.3356 -35.3946  -9.4394  -8.4005  -6.5803  -2.9406  -2.6915  -2.6117
    17.7136  21.8774  22.9110  25.7324  26.6438  30.6636  31.5898  31.6272

          k = 0.2500-0.7217 0.0000 (   496 PWs)   bands (ev):

   -36.3679 -35.3578  -8.6363  -8.4110  -7.5416  -3.3187  -2.9169  -2.1229
    20.5656  22.2645  22.2792  24.8086  25.7505  29.2411  29.4720  32.8295

          k = 0.2500-0.7217 0.1531 (   491 PWs)   bands (ev):

   -36.3506 -35.3563  -8.6537  -8.4635  -7.5288  -3.3530  -2.8068  -2.0765
    20.6977  22.4996  22.6668  24.1114  26.5365  28.0997  28.5602  31.6994

          k = 0.2500-0.7217-0.3062 (   492 PWs)   bands (ev):

   -36.3463 -35.3599  -8.6658  -8.5194  -7.5208  -3.3906  -2.6867  -2.0439
    20.8901  22.2623  23.2495  24.5219  26.7227  26.9745  27.3899  31.1438

          k = 0.0000-0.2887 0.1531 (   490 PWs)   bands (ev):

   -37.1372 -34.9335  -8.0461  -7.6262  -5.9764  -3.4144  -2.5575  -1.9853
    19.3571  20.1336  22.7623  25.5655  26.1162  26.5895  27.1845  30.4093

     the Fermi energy is    25.3630 ev

!    total energy              =    -224.48475348 Ry
     estimated scf accuracy    <       0.00000013 Ry
     smearing contrib. (-TS)   =       0.00481164 Ry
     internal energy E=F+TS    =    -224.48956512 Ry

     The total energy is F=E-TS. E is the sum of the following terms:
     one-electron contribution =     -27.92903729 Ry
     hartree contribution      =      32.25480796 Ry
     xc contribution           =     -58.73804712 Ry
     ewald contribution        =    -170.07728867 Ry

     convergence has been achieved in   8 iterations

     Forces acting on atoms (cartesian axes, Ry/au):

     atom    1 type  1   force =     0.00000000    0.00000000   -0.89688534
     atom    2 type  1   force =     0.00000000    0.00000000    0.89688534

     Total force =     1.268387     Total SCF correction =     0.002149


     Computing stress (Cartesian axis) and pressure

          total   stress  (Ry/bohr**3)                   (kbar)     P=     1841.62
   0.01284756  -0.00000000   0.00000000         1889.94       -0.00        0.00
  -0.00000000   0.01284757   0.00000000           -0.00     1889.94        0.00
   0.00000000   0.00000000   0.01186218            0.00        0.00     1744.99


     BFGS Geometry Optimization
     Energy error            =      0.0E+00 Ry
     Gradient error          =      9.0E-01 Ry/Bohr
     Cell gradient error     =      1.9E+03 kbar

     number of scf cycles    =   1
     number of bfgs steps    =   0

     enthalpy           new  =    -224.4847534789 Ry

     new trust radius        =       0.5000000000 bohr
     new conv_thr            =       0.0000010000 Ry

     new unit-cell volume =    286.38084 a.u.^3 (    42.43726 Ang^3 )
     density =     13.96805 g/cm^3

CELL_PARAMETERS (alat=  5.00000000)
   1.179058008  -0.000000000   0.000000000
   0.589529004   1.021093856   0.000000000
   0.000000000   0.000000000   1.902975117

ATOMIC_POSITIONS (crystal)
Hf            0.0000000000        0.0000000000       -0.0612369871
Hf            0.3333300000        0.3333300000        0.3945669871



     Writing config-only to output data dir ./temp/Hf.save/
     NEW-OLD atomic charge density approx. for the potential
     extrapolated charge   33.18385, renormalised to   24.00000

     total cpu time spent up to now is        3.4 secs

     Self-consistent Calculation

     iteration #  1     ecut=    30.00 Ry     beta= 0.70
     Davidson diagonalization with overlap
     ethr =  1.00E-06,  avg # of iterations = 15.5

     total cpu time spent up to now is        4.2 secs

     total energy              =    -206.34764031 Ry
     estimated scf accuracy    <      22.15420320 Ry

     iteration #  2     ecut=    30.00 Ry     beta= 0.70
     Davidson diagonalization with overlap
     ethr =  1.00E-02,  avg # of iterations =  6.4

     total cpu time spent up to now is        4.6 secs

     total energy              =    -224.49972168 Ry
     estimated scf accuracy    <      33.94539082 Ry

     iteration #  3     ecut=    30.00 Ry     beta= 0.70
     Davidson diagonalization with overlap
     ethr =  1.00E-02,  avg # of iterations =  3.0

     total cpu time spent up to now is        4.9 secs

     total energy              =    -226.22407567 Ry
     estimated scf accuracy    <       5.75099391 Ry

     iteration #  4     ecut=    30.00 Ry     beta= 0.70
     Davidson diagonalization with overlap
     ethr =  1.00E-02,  avg # of iterations =  1.0

     total cpu time spent up to now is        5.1 secs

     total energy              =    -225.06321217 Ry
     estimated scf accuracy    <       3.71730345 Ry

     iteration #  5     ecut=    30.00 Ry     beta= 0.70
     Davidson diagonalization with overlap
     ethr =  1.00E-02,  avg # of iterations =  2.2

     total cpu time spent up to now is        5.3 secs

     total energy              =    -224.89994397 Ry
     estimated scf accuracy    <       0.62870813 Ry

     iteration #  6     ecut=    30.00 Ry     beta= 0.70
     Davidson diagonalization with overlap
     ethr =  2.62E-03,  avg # of iterations =  2.3

     total cpu time spent up to now is        5.6 secs

     total energy              =    -225.19787953 Ry
     estimated scf accuracy    <       0.33704929 Ry

     iteration #  7     ecut=    30.00 Ry     beta= 0.70
     Davidson diagonalization with overlap
     ethr =  1.40E-03,  avg # of iterations =  1.0

     total cpu time spent up to now is        5.8 secs

     total energy              =    -225.11311266 Ry
     estimated scf accuracy    <       0.29618235 Ry

     iteration #  8     ecut=    30.00 Ry     beta= 0.70
     Davidson diagonalization with overlap
     ethr =  1.23E-03,  avg # of iterations =  1.4

     total cpu time spent up to now is        6.1 secs

     total energy              =    -225.11612770 Ry
     estimated scf accuracy    <       0.04842091 Ry

     iteration #  9     ecut=    30.00 Ry     beta= 0.70
     Davidson diagonalization with overlap
     ethr =  2.02E-04,  avg # of iterations =  2.2

     total cpu time spent up to now is        6.3 secs

     total energy              =    -225.12871974 Ry
     estimated scf accuracy    <       0.01433694 Ry

     iteration # 10     ecut=    30.00 Ry     beta= 0.70
     Davidson diagonalization with overlap
     ethr =  5.97E-05,  avg # of iterations =  1.4

     total cpu time spent up to now is        6.5 secs

     total energy              =    -225.12914581 Ry
     estimated scf accuracy    <       0.00166629 Ry

     iteration # 11     ecut=    30.00 Ry     beta= 0.70
     Davidson diagonalization with overlap
     ethr =  6.94E-06,  avg # of iterations =  3.9

     total cpu time spent up to now is        6.8 secs

     total energy              =    -225.12950910 Ry
     estimated scf accuracy    <       0.00011364 Ry

     iteration # 12     ecut=    30.00 Ry     beta= 0.70
     Davidson diagonalization with overlap
     ethr =  4.74E-07,  avg # of iterations =  2.3

     total cpu time spent up to now is        7.0 secs

     total energy              =    -225.12951891 Ry
     estimated scf accuracy    <       0.00001037 Ry

     iteration # 13     ecut=    30.00 Ry     beta= 0.70
     Davidson diagonalization with overlap
     ethr =  4.32E-08,  avg # of iterations =  2.0

     total cpu time spent up to now is        7.3 secs

     total energy              =    -225.12951881 Ry
     estimated scf accuracy    <       0.00000361 Ry

     iteration # 14     ecut=    30.00 Ry     beta= 0.70
     Davidson diagonalization with overlap
     ethr =  1.50E-08,  avg # of iterations =  2.0

     total cpu time spent up to now is        7.5 secs

     End of self-consistent calculation

          k = 0.0000 0.0000 0.0000 (   525 PWs)   bands (ev):

   -45.6287 -45.4803 -15.5744 -14.6596 -14.6596 -14.4886 -14.4864 -14.4864
     8.2611  11.6830  15.8758  16.6140  16.6140  17.2653  17.2653  17.4475

          k = 0.0000 0.0000 0.1314 (   506 PWs)   bands (ev):

   -45.5212 -45.4092 -15.4560 -14.6432 -14.6432 -14.6197 -14.4998 -14.4998
     8.8492  11.4306  15.1654  16.4605  16.4605  17.0205  17.0205  17.0324

          k = 0.0000 0.0000-0.2627 (   494 PWs)   bands (ev):

   -45.4307 -45.3962 -15.2800 -14.8079 -14.6243 -14.6242 -14.5173 -14.5173
    10.1228  10.4081  14.6695  16.4962  16.4962  16.6207  16.6207  16.6324

          k = 0.0000 0.2448 0.0000 (   482 PWs)   bands (ev):

   -45.3596 -45.2691 -15.4132 -15.0479 -14.8303 -14.7739 -14.5444 -14.5358
    10.1127  13.0449  14.3107  15.1009  16.0620  17.0612  17.3744  18.5530

          k = 0.0000 0.2448 0.1314 (   490 PWs)   bands (ev):

   -45.3698 -45.3450 -15.3798 -15.0353 -14.8585 -14.7549 -14.5678 -14.5566
    10.5241  12.9478  14.0017  14.9748  15.8532  16.9919  17.1986  18.3140

          k = 0.0000 0.2448-0.2627 (   498 PWs)   bands (ev):

   -45.4250 -45.3740 -15.3013 -15.1432 -14.7557 -14.7281 -14.6469 -14.5848
    11.5534  11.6426  14.3023  15.0004  16.0927  16.2405  17.5059  18.0007

          k =-0.0000-0.4897 0.0000 (   476 PWs)   bands (ev):

   -45.3179 -45.2181 -15.4232 -15.3164 -14.9762 -14.8807 -14.7154 -14.5928
    12.2801  12.4542  13.2054  15.0024  16.3201  16.3500  17.4138  23.1559

          k =-0.0000-0.4897 0.1314 (   482 PWs)   bands (ev):

   -45.3156 -45.2765 -15.4802 -15.3669 -14.8910 -14.8563 -14.6865 -14.6193
    11.8520  12.5385  13.9770  14.3544  16.7848  16.8136  17.3033  20.6296

          k =-0.0000-0.4897-0.2627 (   496 PWs)   bands (ev):

   -45.3908 -45.3533 -15.4938 -15.4522 -14.8249 -14.7790 -14.6935 -14.6538
    11.9568  12.1082  14.0190  14.7524  16.9162  17.2098  17.6881  19.0428

          k = 0.2120-0.6121 0.0000 (   496 PWs)   bands (ev):

   -45.3802 -45.3628 -15.3076 -15.2031 -15.1127 -14.8564 -14.7732 -14.6789
    12.6563  13.2860  13.9834  14.0889  15.7116  16.5516  16.9811  19.8005

          k = 0.2120-0.6121 0.1314 (   491 PWs)   bands (ev):

   -45.3576 -45.3329 -15.3558 -15.2768 -15.0618 -14.8326 -14.7635 -14.6326
    12.6840  13.1539  14.0841  14.5644  15.7324  15.9511  16.9487  19.4778

          k = 0.2120-0.6121-0.2627 (   492 PWs)   bands (ev):

   -45.3493 -45.3468 -15.3861 -15.3361 -15.0388 -14.8484 -14.6884 -14.6200
    12.8618  12.8763  14.4601  14.8789  15.4085  15.6559  17.1703  18.3643

          k =-0.0000-0.2448 0.1314 (   490 PWs)   bands (ev):

   -45.3880 -45.3263 -15.3681 -15.0850 -14.8041 -14.7532 -14.5841 -14.5584
    10.5024  12.7183  14.0414  15.1820  16.3439  16.7375  17.1945  18.7296

     the Fermi energy is    15.4254 ev

!    total energy              =    -225.12951933 Ry
     estimated scf accuracy    <       0.00000007 Ry
     smearing contrib. (-TS)   =       0.00472417 Ry
     internal energy E=F+TS    =    -225.13424350 Ry

     The total energy is F=E-TS. E is the sum of the following terms:
     one-electron contribution =     -38.05558259 Ry
     hartree contribution      =      27.95776876 Ry
     xc contribution           =     -57.05502093 Ry
     ewald contribution        =    -157.98140874 Ry

     convergence has been achieved in  14 iterations

     Forces acting on atoms (cartesian axes, Ry/au):

     atom    1 type  1   force =     0.00000000    0.00000000   -0.06233808
     atom    2 type  1   force =     0.00000000    0.00000000    0.06233808

     Total force =     0.088159     Total SCF correction =     0.000434


     Computing stress (Cartesian axis) and pressure

          total   stress  (Ry/bohr**3)                   (kbar)     P=     -373.83
  -0.00251733  -0.00000000   0.00000000         -370.31       -0.00        0.00
  -0.00000000  -0.00251733   0.00000000           -0.00     -370.31        0.00
   0.00000000   0.00000000  -0.00258904            0.00        0.00     -380.86

     Energy error            =      6.4E-01 Ry
     Gradient error          =      6.2E-02 Ry/Bohr
     Cell gradient error     =      3.8E+02 kbar

     number of scf cycles    =   2
     number of bfgs steps    =   1

     enthalpy           old  =    -224.4847534789 Ry
     enthalpy           new  =    -225.1295193346 Ry

     CASE: enthalpy          _new < enthalpy          _old

     new trust radius        =       0.1693972177 bohr
     new conv_thr            =       0.0000006234 Ry

     new unit-cell volume =    247.97186 a.u.^3 (    36.74564 Ang^3 )
     density =     16.13160 g/cm^3

CELL_PARAMETERS (alat=  5.00000000)
   1.125677606  -0.000000000   0.000000000
   0.562838803   0.974865079   0.000000000
   0.000000000   0.000000000   1.807731165

ATOMIC_POSITIONS (crystal)
Hf            0.0000000000        0.0000000000       -0.0772588852
Hf            0.3333300000        0.3333300000        0.4105888852



     Writing config-only to output data dir ./temp/Hf.save/
     NEW-OLD atomic charge density approx. for the potential
     extrapolated charge   20.28315, renormalised to   24.00000

     total cpu time spent up to now is        8.5 secs

     Self-consistent Calculation

     iteration #  1     ecut=    30.00 Ry     beta= 0.70
     Davidson diagonalization with overlap
     ethr =  1.00E-06,  avg # of iterations = 10.3

     total cpu time spent up to now is        9.0 secs

     total energy              =    -224.24512678 Ry
     estimated scf accuracy    <       0.82638861 Ry

     iteration #  2     ecut=    30.00 Ry     beta= 0.70
     Davidson diagonalization with overlap
     ethr =  3.44E-03,  avg # of iterations =  2.5

     total cpu time spent up to now is        9.3 secs

     total energy              =    -225.04352014 Ry
     estimated scf accuracy    <       1.40266155 Ry

     iteration #  3     ecut=    30.00 Ry     beta= 0.70
     Davidson diagonalization with overlap
     ethr =  3.44E-03,  avg # of iterations =  2.0

     total cpu time spent up to now is        9.6 secs

     total energy              =    -225.22892184 Ry
     estimated scf accuracy    <       0.11919877 Ry

     iteration #  4     ecut=    30.00 Ry     beta= 0.70
     Davidson diagonalization with overlap
     ethr =  4.97E-04,  avg # of iterations =  1.5

     total cpu time spent up to now is        9.8 secs

     total energy              =    -225.20687154 Ry
     estimated scf accuracy    <       0.04187856 Ry

     iteration #  5     ecut=    30.00 Ry     beta= 0.70
     Davidson diagonalization with overlap
     ethr =  1.74E-04,  avg # of iterations =  2.0

     total cpu time spent up to now is       10.1 secs

     total energy              =    -225.21725443 Ry
     estimated scf accuracy    <       0.00090522 Ry

     iteration #  6     ecut=    30.00 Ry     beta= 0.70
     Davidson diagonalization with overlap
     ethr =  3.77E-06,  avg # of iterations =  3.2

     total cpu time spent up to now is       10.3 secs

     total energy              =    -225.21733704 Ry
     estimated scf accuracy    <       0.00010561 Ry

     iteration #  7     ecut=    30.00 Ry     beta= 0.70
     Davidson diagonalization with overlap
     ethr =  4.40E-07,  avg # of iterations =  2.4

     total cpu time spent up to now is       10.5 secs

     total energy              =    -225.21734370 Ry
     estimated scf accuracy    <       0.00008984 Ry

     iteration #  8     ecut=    30.00 Ry     beta= 0.70
     Davidson diagonalization with overlap
     ethr =  3.74E-07,  avg # of iterations =  1.0

     total cpu time spent up to now is       10.8 secs

     total energy              =    -225.21734942 Ry
     estimated scf accuracy    <       0.00000498 Ry

     iteration #  9     ecut=    30.00 Ry     beta= 0.70
     Davidson diagonalization with overlap
     ethr =  2.07E-08,  avg # of iterations =  2.5

     total cpu time spent up to now is       11.0 secs

     End of self-consistent calculation

          k = 0.0000 0.0000 0.0000 (   525 PWs)   bands (ev):

   -42.9138 -42.6722 -12.8858 -11.5096 -11.5096 -11.2955 -11.2955 -11.2919
    10.4064  13.8772  19.3600  19.3676  19.3677  19.8631  20.3528  20.3529

          k = 0.0000 0.0000 0.1383 (   506 PWs)   bands (ev):

   -42.8206 -42.6269 -12.6677 -11.5420 -11.4749 -11.4749 -11.3209 -11.3209
    11.1163  13.7647  18.5491  19.1551  19.1551  19.1827  19.9011  19.9012

          k = 0.0000 0.0000-0.2766 (   494 PWs)   bands (ev):

   -42.6890 -42.6809 -12.2181 -12.0228 -11.4173 -11.4173 -11.3747 -11.3747
    12.6948  12.7540  17.8870  18.5395  19.2466  19.2466  19.2966  19.2967

          k = 0.0000 0.2564 0.0000 (   482 PWs)   bands (ev):

   -42.6516 -42.5013 -12.6054 -12.0923 -11.8600 -11.6767 -11.4049 -11.3708
    12.5530  15.3681  16.9646  17.5063  18.9788  19.8934  20.0103  21.6045

          k = 0.0000 0.2564 0.1383 (   490 PWs)   bands (ev):

   -42.6462 -42.5751 -12.5474 -12.0320 -11.9436 -11.6384 -11.4549 -11.4158
    12.9867  15.3966  16.4936  17.6374  18.4651  19.7504  20.0813  21.5261

          k = 0.0000 0.2564-0.2766 (   498 PWs)   bands (ev):

   -42.6486 -42.6409 -12.3672 -12.3030 -11.6861 -11.6381 -11.5582 -11.5004
    14.1268  14.1555  17.0091  17.2677  18.7425  18.8146  20.6479  20.8069

          k =-0.0000-0.5129 0.0000 (   476 PWs)   bands (ev):

   -42.5882 -42.4390 -12.6568 -12.3952 -12.1629 -11.8361 -11.6700 -11.4603
    14.6138  14.6319  15.2552  18.0195  18.9724  19.2490  20.2155  25.5729

          k =-0.0000-0.5129 0.1383 (   482 PWs)   bands (ev):

   -42.5788 -42.4926 -12.7560 -12.5483 -11.9527 -11.7864 -11.6131 -11.5149
    13.9437  14.7229  16.5465  16.7017  19.5845  19.7208  20.5213  23.9630

          k =-0.0000-0.5129-0.2766 (   496 PWs)   bands (ev):

   -42.6032 -42.5912 -12.7594 -12.7375 -11.7009 -11.6906 -11.6622 -11.6216
    14.1202  14.1847  16.5830  16.8381  20.2818  20.3606  21.1230  21.5606

          k = 0.2221-0.6411 0.0000 (   496 PWs)   bands (ev):

   -42.6261 -42.5690 -12.4260 -12.2986 -12.1986 -11.9481 -11.7269 -11.6571
    15.3312  15.5104  16.3533  16.5993  18.3597  19.3786  19.8170  23.0223

          k = 0.2221-0.6411 0.1383 (   491 PWs)   bands (ev):

   -42.5850 -42.5672 -12.5217 -12.4608 -12.0606 -11.9096 -11.7335 -11.5447
    15.2009  15.4005  16.5351  17.1547  18.4813  18.5872  19.8241  22.6614

          k = 0.2221-0.6411-0.2766 (   492 PWs)   bands (ev):

   -42.5783 -42.5760 -12.5812 -12.5603 -12.0157 -11.9386 -11.5759 -11.5445
    15.1757  15.2028  17.2031  17.3694  18.1168  18.2256  20.4576  20.8421

          k =-0.0000-0.2564 0.1383 (   490 PWs)   bands (ev):

   -42.6489 -42.5726 -12.5391 -12.0958 -11.8783 -11.6372 -11.4644 -11.4170
    12.9726  15.3070  16.5112  17.7138  18.6361  19.6597  20.0775  21.7217

     the Fermi energy is    18.0763 ev

!    total energy              =    -225.21735024 Ry
     estimated scf accuracy    <       0.00000026 Ry
     smearing contrib. (-TS)   =       0.00356120 Ry
     internal energy E=F+TS    =    -225.22091144 Ry

     The total energy is F=E-TS. E is the sum of the following terms:
     one-electron contribution =     -25.42581548 Ry
     hartree contribution      =      24.28851760 Ry
     xc contribution           =     -57.35985977 Ry
     ewald contribution        =    -166.72375378 Ry

     convergence has been achieved in   9 iterations

     Forces acting on atoms (cartesian axes, Ry/au):

     atom    1 type  1   force =     0.00000000    0.00000000   -0.02672253
     atom    2 type  1   force =     0.00000000    0.00000000    0.02672253

     Total force =     0.037791     Total SCF correction =     0.001866


     Computing stress (Cartesian axis) and pressure

          total   stress  (Ry/bohr**3)                   (kbar)     P=     -162.77
  -0.00098559  -0.00000000   0.00000000         -144.99       -0.00        0.00
   0.00000000  -0.00098559   0.00000000            0.00     -144.99        0.00
   0.00000000   0.00000000  -0.00134837            0.00        0.00     -198.35

     Energy error            =      8.8E-02 Ry
     Gradient error          =      2.7E-02 Ry/Bohr
     Cell gradient error     =      2.0E+02 kbar

     number of scf cycles    =   3
     number of bfgs steps    =   2

     enthalpy           old  =    -225.1295193346 Ry
     enthalpy           new  =    -225.2173502402 Ry

     CASE: enthalpy          _new < enthalpy          _old

     new trust radius        =       0.1455103347 bohr
     new conv_thr            =       0.0000002672 Ry

     new unit-cell volume =    224.02318 a.u.^3 (    33.19681 Ang^3 )
     density =     17.85611 g/cm^3

CELL_PARAMETERS (alat=  5.00000000)
   1.095547333  -0.000000000   0.000000000
   0.547773666   0.948771500   0.000000000
   0.000000000   0.000000000   1.724210010

ATOMIC_POSITIONS (crystal)
Hf            0.0000000000        0.0000000000       -0.0881792673
Hf            0.3333300000        0.3333300000        0.4215092673



 %%%%%%%%%%%%%%%%%%%%%%%%%%%%%%%%%%%%%%%%%%%%%%%%%%%%%%%%%%%%%%%%%%%%%%%%%%%%%%
     Error in routine checkallsym (1):
     some of the original symmetry operations not satisfied
 %%%%%%%%%%%%%%%%%%%%%%%%%%%%%%%%%%%%%%%%%%%%%%%%%%%%%%%%%%%%%%%%%%%%%%%%%%%%%%

     stopping ...
