
     Program PWSCF v.7.0 starts on 21Mar2022 at 21: 1:56 

     This program is part of the open-source Quantum ESPRESSO suite
     for quantum simulation of materials; please cite
         "P. Giannozzi et al., J. Phys.:Condens. Matter 21 395502 (2009);
         "P. Giannozzi et al., J. Phys.:Condens. Matter 29 465901 (2017);
         "P. Giannozzi et al., J. Chem. Phys. 152 154105 (2020);
          URL http://www.quantum-espresso.org", 
     in publications or presentations arising from this work. More details at
     http://www.quantum-espresso.org/quote

     Parallel version (MPI), running on     1 processors

     MPI processes distributed on     1 nodes
     0 MiB available memory on the printing compute node when the environment starts

     Reading input from Hf.sci.in

     Current dimensions of program PWSCF are:
     Max number of different atomic species (ntypx) = 10
     Max number of k-points (npk) =  40000
     Max angular momentum in pseudopotentials (lmaxx) =  4

     File ./temp/Hf.update deleted, as requested

     File ./temp/Hf.bfgs deleted, as requested

     Subspace diagonalization in iterative solution of the eigenvalue problem:
     a serial algorithm will be used


     G-vector sticks info
     --------------------
     sticks:   dense  smooth     PW     G-vecs:    dense   smooth      PW
     Sum         253     199     73                 5515     3935     785

     Using Slab Decomposition



     bravais-lattice index     =            4
     lattice parameter (alat)  =       5.0000  a.u.
     unit-cell volume          =     176.7774 (a.u.)^3
     number of atoms/cell      =            2
     number of atomic types    =            1
     number of electrons       =        24.00
     number of Kohn-Sham states=           16
     kinetic-energy cutoff     =      30.0000  Ry
     charge density cutoff     =     150.0000  Ry
     scf convergence threshold =      1.0E-06
     mixing beta               =       0.7000
     number of iterations used =            8  plain     mixing
     energy convergence thresh.=      1.0E-04
     force convergence thresh. =      1.0E-03
     press convergence thresh. =      5.0E-01
     Exchange-correlation= PBE
                           (   1   4   3   4   0   0   0)
     nstep                     =           50


     celldm(1)=   5.000000  celldm(2)=   0.000000  celldm(3)=   1.633000
     celldm(4)=   0.000000  celldm(5)=   0.000000  celldm(6)=   0.000000

     crystal axes: (cart. coord. in units of alat)
               a(1) = (   1.000000   0.000000   0.000000 )  
               a(2) = (  -0.500000   0.866025   0.000000 )  
               a(3) = (   0.000000   0.000000   1.633000 )  

     reciprocal axes: (cart. coord. in units 2 pi/alat)
               b(1) = (  1.000000  0.577350 -0.000000 )  
               b(2) = (  0.000000  1.154701  0.000000 )  
               b(3) = (  0.000000 -0.000000  0.612370 )  


     PseudoPot. # 1 for Hf read from file:
     /Users/vinhtran/Documents/GitHub/DFT/pseudos/Hf-sp.oncvpsp.upf
     MD5 check sum: 417ed15784afe83d2e06dacf143de3f8
     Pseudo is Norm-conserving + core correction, Zval = 12.0
     Generated using ONCVPSP code by D. R. Hamann
     Using radial grid of 1656 points,  8 beta functions with: 
                l(1) =   0
                l(2) =   0
                l(3) =   1
                l(4) =   1
                l(5) =   2
                l(6) =   2
                l(7) =   3
                l(8) =   3

     atomic species   valence    mass     pseudopotential
        Hf            12.00   178.48600     Hf( 1.00)

      2 Sym. Ops. (no inversion) found



   Cartesian axes

     site n.     atom                  positions (alat units)
         1           Hf  tau(   1) = (   0.0000000   0.0000000   0.0000000  )
         2           Hf  tau(   2) = (   0.1666650   0.2886722   0.5443279  )

     number of k points=    52  Methfessel-Paxton smearing, width (Ry)=  0.1000
                       cart. coord. in units 2pi/alat
        k(    1) = (   0.1250000   0.2165064   0.0765462), wk =   0.0208333
        k(    2) = (   0.1250000   0.2165064   0.2296387), wk =   0.0208333
        k(    3) = (   0.1250000   0.5051815   0.0765462), wk =   0.0416667
        k(    4) = (   0.1250000   0.5051815   0.2296387), wk =   0.0416667
        k(    5) = (   0.1250000  -0.3608439   0.0765462), wk =   0.0416667
        k(    6) = (   0.1250000  -0.3608439   0.2296387), wk =   0.0416667
        k(    7) = (   0.1250000  -0.0721688   0.0765462), wk =   0.0416667
        k(    8) = (   0.1250000  -0.0721688   0.2296387), wk =   0.0416667
        k(    9) = (   0.3750000   0.6495191   0.0765462), wk =   0.0208333
        k(   10) = (   0.3750000   0.6495191   0.2296387), wk =   0.0208333
        k(   11) = (   0.3750000  -0.2165064   0.0765462), wk =   0.0416667
        k(   12) = (   0.3750000  -0.2165064   0.2296387), wk =   0.0416667
        k(   13) = (  -0.1250000   0.2165064  -0.0765462), wk =   0.0416667
        k(   14) = (   0.1250000  -0.2165064  -0.0765462), wk =   0.0416667
        k(   15) = (   0.1250000   0.2165064  -0.0765462), wk =   0.0208333
        k(   16) = (  -0.1250000   0.2165064  -0.2296387), wk =   0.0416667
        k(   17) = (   0.1250000  -0.2165064  -0.2296387), wk =   0.0416667
        k(   18) = (   0.1250000   0.2165064  -0.2296387), wk =   0.0208333
        k(   19) = (  -0.1250000   0.5051815  -0.0765462), wk =   0.0416667
        k(   20) = (   0.1250000  -0.5051815  -0.0765462), wk =   0.0416667
        k(   21) = (  -0.3750000   0.3608439   0.0765462), wk =   0.0416667
        k(   22) = (   0.3750000  -0.3608439   0.0765462), wk =   0.0416667
        k(   23) = (   0.3750000   0.3608439  -0.0765462), wk =   0.0416667
        k(   24) = (  -0.1250000   0.5051815  -0.2296387), wk =   0.0416667
        k(   25) = (   0.1250000  -0.5051815  -0.2296387), wk =   0.0416667
        k(   26) = (  -0.3750000   0.3608439   0.2296387), wk =   0.0416667
        k(   27) = (   0.3750000  -0.3608439   0.2296387), wk =   0.0416667
        k(   28) = (   0.3750000   0.3608439  -0.2296387), wk =   0.0416667
        k(   29) = (  -0.1250000  -0.3608439  -0.0765462), wk =   0.0416667
        k(   30) = (   0.1250000   0.3608439  -0.0765462), wk =   0.0416667
        k(   31) = (   0.3750000  -0.0721688   0.0765462), wk =   0.0416667
        k(   32) = (  -0.3750000   0.0721688   0.0765462), wk =   0.0416667
        k(   33) = (  -0.3750000  -0.0721688  -0.0765462), wk =   0.0416667
        k(   34) = (  -0.1250000  -0.3608439  -0.2296387), wk =   0.0416667
        k(   35) = (   0.1250000   0.3608439  -0.2296387), wk =   0.0416667
        k(   36) = (   0.3750000  -0.0721688   0.2296387), wk =   0.0416667
        k(   37) = (  -0.3750000   0.0721688   0.2296387), wk =   0.0416667
        k(   38) = (  -0.3750000  -0.0721688  -0.2296387), wk =   0.0416667
        k(   39) = (  -0.1250000  -0.0721688  -0.0765462), wk =   0.0416667
        k(   40) = (   0.1250000   0.0721688  -0.0765462), wk =   0.0416667
        k(   41) = (  -0.1250000  -0.0721688  -0.2296387), wk =   0.0416667
        k(   42) = (   0.1250000   0.0721688  -0.2296387), wk =   0.0416667
        k(   43) = (  -0.3750000   0.6495191  -0.0765462), wk =   0.0416667
        k(   44) = (   0.3750000  -0.6495191  -0.0765462), wk =   0.0416667
        k(   45) = (   0.3750000   0.6495191  -0.0765462), wk =   0.0208333
        k(   46) = (  -0.3750000   0.6495191  -0.2296387), wk =   0.0416667
        k(   47) = (   0.3750000  -0.6495191  -0.2296387), wk =   0.0416667
        k(   48) = (   0.3750000   0.6495191  -0.2296387), wk =   0.0208333
        k(   49) = (  -0.3750000  -0.2165064  -0.0765462), wk =   0.0416667
        k(   50) = (   0.3750000   0.2165064  -0.0765462), wk =   0.0416667
        k(   51) = (  -0.3750000  -0.2165064  -0.2296387), wk =   0.0416667
        k(   52) = (   0.3750000   0.2165064  -0.2296387), wk =   0.0416667

     Dense  grid:     5515 G-vectors     FFT dimensions: (  20,  20,  32)

     Smooth grid:     3935 G-vectors     FFT dimensions: (  18,  18,  30)

     Estimated max dynamical RAM per process >      15.26 MB

     Initial potential from superposition of free atoms

     starting charge      23.9963, renormalised to      24.0000
     Starting wfcs are   20 randomized atomic wfcs

     total cpu time spent up to now is        0.6 secs

     Self-consistent Calculation

     iteration #  1     ecut=    30.00 Ry     beta= 0.70
     Davidson diagonalization with overlap
     ethr =  1.00E-02,  avg # of iterations =  2.3

     total cpu time spent up to now is        1.6 secs

     total energy              =    -223.75637885 Ry
     estimated scf accuracy    <       0.80663745 Ry

     iteration #  2     ecut=    30.00 Ry     beta= 0.70
     Davidson diagonalization with overlap
     ethr =  3.36E-03,  avg # of iterations =  2.5

     total cpu time spent up to now is        2.7 secs

     total energy              =    -223.93221556 Ry
     estimated scf accuracy    <       1.17952952 Ry

     iteration #  3     ecut=    30.00 Ry     beta= 0.70
     Davidson diagonalization with overlap
     ethr =  3.36E-03,  avg # of iterations =  2.0

     total cpu time spent up to now is        3.6 secs

     total energy              =    -224.15382382 Ry
     estimated scf accuracy    <       0.00093724 Ry

     iteration #  4     ecut=    30.00 Ry     beta= 0.70
     Davidson diagonalization with overlap
     ethr =  3.91E-06,  avg # of iterations =  6.9

     total cpu time spent up to now is        5.0 secs

     total energy              =    -224.15599453 Ry
     estimated scf accuracy    <       0.00129887 Ry

     iteration #  5     ecut=    30.00 Ry     beta= 0.70
     Davidson diagonalization with overlap
     ethr =  3.91E-06,  avg # of iterations =  2.0

     total cpu time spent up to now is        5.9 secs

     total energy              =    -224.15611212 Ry
     estimated scf accuracy    <       0.00007031 Ry

     iteration #  6     ecut=    30.00 Ry     beta= 0.70
     Davidson diagonalization with overlap
     ethr =  2.93E-07,  avg # of iterations =  2.1

     total cpu time spent up to now is        6.9 secs

     total energy              =    -224.15613336 Ry
     estimated scf accuracy    <       0.00000189 Ry

     iteration #  7     ecut=    30.00 Ry     beta= 0.70
     Davidson diagonalization with overlap
     ethr =  7.87E-09,  avg # of iterations =  2.9

     total cpu time spent up to now is        7.8 secs

     total energy              =    -224.15613334 Ry
     estimated scf accuracy    <       0.00000171 Ry

     iteration #  8     ecut=    30.00 Ry     beta= 0.70
     Davidson diagonalization with overlap
     ethr =  7.12E-09,  avg # of iterations =  1.6

     total cpu time spent up to now is        8.7 secs

     End of self-consistent calculation

          k = 0.1250 0.2165 0.0765 (   491 PWs)   bands (ev):

   -39.1427 -34.0970 -11.4661  -7.5682  -5.4805  -2.9545  -2.7343   1.6180
    18.8402  22.0598  22.4832  23.6119  24.0071  25.8808  28.8145  30.4329

          k = 0.1250 0.2165 0.2296 (   492 PWs)   bands (ev):

   -39.1531 -34.0982 -11.3787  -7.6332  -5.4742  -2.8138  -2.7318   1.4236
    18.8743  21.9968  22.0270  22.4225  23.6553  27.5214  30.4713  31.3267

          k = 0.1250 0.5052 0.0765 (   489 PWs)   bands (ev):

   -38.6816 -34.1643 -11.7121  -9.1993  -6.4488  -3.7371  -2.7391   1.4234
    19.3374  21.1872  23.8690  25.0744  27.6992  28.1086  29.9670  31.0093

          k = 0.1250 0.5052 0.2296 (   489 PWs)   bands (ev):

   -38.6832 -34.1716 -11.6979  -9.2639  -6.4365  -3.7057  -2.5986   1.4695
    19.2222  20.7120  22.7105  23.4150  28.1369  28.9298  31.8093  32.7073

          k = 0.1250-0.3608 0.0765 (   488 PWs)   bands (ev):

   -38.9812 -33.9921 -11.4931  -8.1232  -6.4756  -3.5936  -2.9142   1.7634
    19.9149  20.7342  21.8090  23.5493  25.0713  27.4374  31.5591  31.7306

          k = 0.1250-0.3608 0.2296 (   490 PWs)   bands (ev):

   -38.9712 -34.0163 -11.4293  -8.1578  -6.4684  -3.5744  -2.8370   1.6287
    19.6857  20.5240  21.6196  22.9255  26.3754  27.8612  30.8784  32.2873

          k = 0.1250-0.0722 0.0765 (   503 PWs)   bands (ev):

   -39.4195 -33.9911 -11.2595  -5.9278  -4.7361  -4.3895  -2.5768   1.8520
    18.2731  19.6396  21.3080  23.6396  24.6924  26.2794  28.6468  29.4399

          k = 0.1250-0.0722 0.2296 (   495 PWs)   bands (ev):

   -39.4078 -33.9986 -11.1065  -5.9093  -4.8519  -4.2764  -2.5916   1.5077
    18.6980  19.4675  21.7822  23.3973  24.2418  26.7813  28.7030  29.6899

          k = 0.3750 0.6495 0.0765 (   487 PWs)   bands (ev):

   -38.7961 -33.9109 -11.4320  -8.4202  -7.7517  -4.0869  -3.2412   1.7063
    20.4847  20.8985  23.9692  24.2948  24.2965  29.0779  31.6790  33.1288

          k = 0.3750 0.6495 0.2296 (   489 PWs)   bands (ev):

   -38.7973 -33.9291 -11.3807  -8.3948  -7.7986  -4.1496  -3.1111   1.6186
    20.6734  21.4084  22.9428  23.4272  25.0093  30.2777  30.3455  32.0853

          k = 0.3750-0.2165 0.0765 (   488 PWs)   bands (ev):

   -39.0840 -33.7688 -11.1253  -8.6303  -5.1164  -4.6209  -4.0330   1.7960
    19.3066  19.7695  20.7717  25.6727  26.3643  28.3268  30.9792  31.8853

          k = 0.3750-0.2165 0.2296 (   490 PWs)   bands (ev):

   -39.0635 -33.8076 -11.0171  -8.5992  -5.2088  -4.5128  -4.1037   1.5449
    19.2025  20.4891  21.5893  24.3237  26.8073  27.9753  30.1397  32.7383

          k =-0.1250 0.2165-0.0765 (   491 PWs)   bands (ev):

   -39.2522 -33.9562 -11.3153  -6.8601  -5.8155  -3.5607  -2.9692   1.8673
    19.4853  20.6768  20.9668  22.9530  24.3482  26.8896  29.4973  30.6610

          k = 0.1250-0.2165-0.0765 (   491 PWs)   bands (ev):

   -39.2478 -33.9599 -11.2765  -6.8813  -5.8894  -3.4656  -2.9685   1.7385
    19.7133  20.7409  21.2507  23.0494  24.7015  27.0378  28.8641  30.1077

          k = 0.1250 0.2165-0.0765 (   491 PWs)   bands (ev):

   -39.1557 -34.0792 -11.5276  -7.4964  -5.4811  -3.0116  -2.7364   1.8032
    19.0339  21.5102  21.9915  22.1892  24.2917  26.5733  29.6004  30.0031

          k =-0.1250 0.2165-0.2296 (   492 PWs)   bands (ev):

   -39.2476 -33.9776 -11.1987  -6.8684  -5.8346  -3.4834  -3.0002   1.5855
    19.6721  20.5649  20.9092  23.2175  24.3124  26.9904  29.7233  30.2549

          k = 0.1250-0.2165-0.2296 (   492 PWs)   bands (ev):

   -39.2446 -33.9821 -11.1571  -6.8950  -5.9063  -3.3887  -2.9978   1.4608
    19.9299  20.5096  21.2274  23.2924  24.7675  26.9553  29.1675  30.9049

          k = 0.1250 0.2165-0.2296 (   492 PWs)   bands (ev):

   -39.1490 -34.1063 -11.4490  -7.5556  -5.4686  -2.8752  -2.7413   1.6118
    19.1189  20.7019  21.9579  22.0501  23.8964  27.3203  30.1340  31.0599

          k =-0.1250 0.5052-0.0765 (   489 PWs)   bands (ev):

   -38.7437 -34.0859 -11.6637  -9.0068  -6.6582  -3.8452  -2.7504   1.5535
    19.2499  20.8164  23.3489  24.4209  27.0383  28.0633  31.1766  32.4810

          k = 0.1250-0.5052-0.0765 (   489 PWs)   bands (ev):

   -38.7388 -34.0879 -11.6328  -9.0390  -6.6686  -3.8422  -2.7277   1.4774
    19.3178  21.3387  24.3076  24.4439  25.7628  28.4989  29.2958  31.8466

          k =-0.3750 0.3608 0.0765 (   489 PWs)   bands (ev):

   -38.9651 -33.7917 -11.1825  -8.8209  -6.4405  -4.2269  -3.6842   1.7025
    19.7514  20.0652  21.1996  26.4185  27.0017  27.6297  29.3755  34.2909

          k = 0.3750-0.3608 0.0765 (   489 PWs)   bands (ev):

   -38.9703 -33.7875 -11.2111  -8.8234  -6.3581  -4.2192  -3.7687   1.7973
    19.3184  19.9585  21.6305  24.7004  25.9268  30.2396  32.5177  33.2177

          k = 0.3750 0.3608-0.0765 (   489 PWs)   bands (ev):

   -38.6817 -34.1621 -11.7252  -9.1960  -6.4444  -3.7387  -2.7390   1.4551
    19.3885  21.3489  23.5865  25.7628  26.6070  27.5374  29.5958  31.8954

          k =-0.1250 0.5052-0.2296 (   489 PWs)   bands (ev):

   -38.7352 -34.1061 -11.6402  -9.0621  -6.6433  -3.8232  -2.6303   1.5652
    19.0632  20.5194  22.3171  23.5396  28.1790  28.9521  31.1136  33.7536

          k = 0.1250-0.5052-0.2296 (   489 PWs)   bands (ev):

   -38.7311 -34.1081 -11.6072  -9.0919  -6.6541  -3.8225  -2.6073   1.4861
    19.1698  20.8498  23.0183  23.5658  26.8088  29.0461  30.3438  33.2316

          k =-0.3750 0.3608 0.2296 (   489 PWs)   bands (ev):

   -38.9471 -33.8228 -11.1034  -8.7889  -6.4753  -4.3005  -3.6041   1.5030
    19.6958  21.0059  21.6142  24.5261  26.7797  28.7971  29.4861  32.5985

          k = 0.3750-0.3608 0.2296 (   489 PWs)   bands (ev):

   -38.9588 -33.8124 -11.1230  -8.7912  -6.3960  -4.2923  -3.6913   1.6007
    19.2776  21.1930  21.6156  24.3966  25.0059  30.4913  31.1979  32.7795

          k = 0.3750 0.3608-0.2296 (   489 PWs)   bands (ev):

   -38.6847 -34.1692 -11.7063  -9.2623  -6.4326  -3.7085  -2.5999   1.5088
    19.2925  20.6587  22.5429  23.8485  27.6398  28.2932  31.5710  33.1707

          k =-0.1250-0.3608-0.0765 (   488 PWs)   bands (ev):

   -38.8568 -34.1536 -11.6321  -8.6535  -5.9667  -3.3036  -2.8090   1.4893
    19.9739  21.5315  23.0728  25.1338  25.3798  26.7776  29.1974  30.4079

          k = 0.1250 0.3608-0.0765 (   488 PWs)   bands (ev):

   -38.8658 -34.1436 -11.6817  -8.6115  -5.9587  -3.3093  -2.8281   1.6191
    20.0710  21.5597  22.3412  23.8636  25.1663  28.1209  28.8254  30.8838

          k = 0.3750-0.0722 0.0765 (   488 PWs)   bands (ev):

   -39.0860 -33.8534 -11.2215  -8.0247  -6.2866  -3.7041  -3.5778   1.7214
    20.1458  20.5400  22.0284  23.5366  25.5285  27.1332  29.2196  31.8805

          k =-0.3750 0.0722 0.0765 (   488 PWs)   bands (ev):

   -39.0860 -33.8569 -11.2548  -8.0238  -6.1955  -3.7213  -3.6509   1.8326
    19.6401  20.5370  22.2092  23.1728  24.8473  27.5466  31.2551  32.2119

          k =-0.3750-0.0722-0.0765 (   488 PWs)   bands (ev):

   -38.9779 -33.9965 -11.4389  -8.1667  -6.5093  -3.5812  -2.8661   1.6164
    20.0076  21.8555  21.9583  23.3805  24.8286  28.2363  28.7484  31.8711

          k =-0.1250-0.3608-0.2296 (   490 PWs)   bands (ev):

   -38.8649 -34.1549 -11.5897  -8.7223  -5.9576  -3.2657  -2.6728   1.4522
    19.8777  20.8831  22.4089  23.3662  25.1590  29.3856  29.6298  31.1528

          k = 0.1250 0.3608-0.2296 (   490 PWs)   bands (ev):

   -38.8583 -34.1636 -11.6468  -8.6742  -5.9496  -3.2751  -2.6968   1.5917
    20.0544  20.3768  22.0857  23.2792  24.7723  29.4645  30.4119  30.8700

          k = 0.3750-0.0722 0.2296 (   490 PWs)   bands (ev):

   -39.0780 -33.8760 -11.1233  -8.0058  -6.3231  -3.7478  -3.5085   1.4909
    20.1054  21.0273  22.1587  23.6207  24.7198  27.8533  29.7907  31.6411

          k =-0.3750 0.0722 0.2296 (   490 PWs)   bands (ev):

   -39.0765 -33.8802 -11.1580  -8.0038  -6.2330  -3.7461  -3.6015   1.6008
    19.6520  21.2162  22.0271  22.9940  24.7999  28.0985  30.6475  31.5086

          k =-0.3750-0.0722-0.2296 (   490 PWs)   bands (ev):

   -38.9689 -34.0194 -11.3726  -8.2032  -6.5012  -3.5711  -2.7806   1.4796
    19.8765  21.0546  22.1180  22.8587  26.0901  27.9816  29.9363  32.0486

          k =-0.1250-0.0722-0.0765 (   503 PWs)   bands (ev):

   -39.3755 -34.0515 -11.3223  -6.2070  -5.3530  -3.3513  -2.4727   1.7352
    17.7832  20.2798  22.0351  23.1671  25.2087  25.9373  28.1384  30.1251

          k = 0.1250 0.0722-0.0765 (   503 PWs)   bands (ev):

   -39.3825 -34.0414 -11.3629  -6.1190  -5.3415  -3.4526  -2.4734   1.8732
    17.8198  20.1727  21.2707  23.1022  24.6225  26.1898  28.8661  29.8624

          k =-0.1250-0.0722-0.2296 (   495 PWs)   bands (ev):

   -39.3666 -34.0512 -11.1789  -6.2463  -5.3465  -3.2768  -2.4815   1.4202
    18.0627  20.1308  21.7575  23.3727  25.0008  25.8151  29.3915  30.2859

          k = 0.1250 0.0722-0.2296 (   495 PWs)   bands (ev):

   -39.3717 -34.0483 -11.2253  -6.1598  -5.3362  -3.3768  -2.4840   1.5635
    18.1409  20.0527  21.0372  23.2636  24.5547  26.0329  29.0859  30.3508

          k =-0.3750 0.6495-0.0765 (   487 PWs)   bands (ev):

   -38.6723 -34.0731 -11.6311  -8.7870  -7.4849  -3.8125  -3.0028   1.5310
    21.1968  21.6403  23.0672  24.7697  26.2264  27.4086  30.6866  31.9497

          k = 0.3750-0.6495-0.0765 (   487 PWs)   bands (ev):

   -38.6752 -34.0667 -11.6108  -8.8225  -7.4840  -3.8250  -2.9667   1.4754
    21.3631  22.2458  24.1166  24.8203  25.7490  26.3037  28.8521  30.9670

          k = 0.3750 0.6495-0.0765 (   487 PWs)   bands (ev):

   -38.8006 -33.9057 -11.3910  -8.4171  -7.8203  -4.0980  -3.1766   1.5974
    20.7717  21.5069  23.3176  24.8826  26.2300  27.0947  29.0825  31.5736

          k =-0.3750 0.6495-0.2296 (   489 PWs)   bands (ev):

   -38.6819 -34.0786 -11.6087  -8.8516  -7.4635  -3.8420  -2.8407   1.5476
    21.0579  21.7368  22.1677  23.3807  26.5705  28.7899  29.8840  32.8152

          k = 0.3750-0.6495-0.2296 (   489 PWs)   bands (ev):

   -38.6772 -34.0791 -11.5879  -8.8845  -7.4621  -3.8562  -2.8063   1.4946
    21.3241  21.9803  23.1030  23.4359  26.1935  27.2393  28.7081  32.8704

          k = 0.3750 0.6495-0.2296 (   489 PWs)   bands (ev):

   -38.7891 -33.9338 -11.3428  -8.3911  -7.8678  -4.1633  -3.0493   1.5128
    21.2870  21.8738  22.7327  23.6277  26.2587  27.6815  28.8123  32.5520

          k =-0.3750-0.2165-0.0765 (   488 PWs)   bands (ev):

   -38.8142 -34.1209 -11.6411  -8.9311  -6.0326  -3.7081  -2.6161   1.4850
    18.6798  20.9929  23.7063  24.7484  26.5906  28.1183  30.6068  31.7256

          k = 0.3750 0.2165-0.0765 (   488 PWs)   bands (ev):

   -38.8146 -34.1204 -11.6846  -8.8950  -6.0190  -3.7135  -2.6384   1.5955
    18.6489  20.7299  22.8401  24.5783  27.2310  28.3072  30.4406  31.6966

          k =-0.3750-0.2165-0.2296 (   490 PWs)   bands (ev):

   -38.8098 -34.1393 -11.6100  -8.9907  -6.0232  -3.6605  -2.5048   1.4692
    18.6232  20.2707  22.6563  23.6231  28.0679  29.2253  30.5222  32.2657

          k = 0.3750 0.2165-0.2296 (   490 PWs)   bands (ev):

   -38.8120 -34.1398 -11.6578  -8.9530  -6.0104  -3.6614  -2.5306   1.5822
    18.5751  19.9793  22.1630  23.5831  28.6389  29.1891  30.4110  32.7511

     the Fermi energy is    24.6409 ev

!    total energy              =    -224.15613332 Ry
     estimated scf accuracy    <       0.00000025 Ry
     smearing contrib. (-TS)   =      -0.00097112 Ry
     internal energy E=F+TS    =    -224.15516220 Ry

     The total energy is F=E-TS. E is the sum of the following terms:
     one-electron contribution =     -32.83504552 Ry
     hartree contribution      =      34.66503284 Ry
     xc contribution           =     -59.01722597 Ry
     ewald contribution        =    -166.96792355 Ry

     convergence has been achieved in   8 iterations

     Forces acting on atoms (cartesian axes, Ry/au):

     atom    1 type  1   force =    -0.43214925   -0.74850447   -1.89991504
     atom    2 type  1   force =     0.43214925    0.74850447    1.89991504

     Total force =     2.951843     Total SCF correction =     0.003941


     Computing stress (Cartesian axis) and pressure

          total   stress  (Ry/bohr**3)                   (kbar)     P=     2484.37
   0.00892972   0.00542328   0.00644501         1313.61      797.79      948.09
   0.00542328   0.01519198   0.01116308          797.79     2234.82     1642.15
   0.00644501   0.01116308   0.02654351          948.09     1642.15     3904.69


     BFGS Geometry Optimization
     Energy error            =      0.0E+00 Ry
     Gradient error          =      1.9E+00 Ry/Bohr
     Cell gradient error     =      3.9E+03 kbar

     number of scf cycles    =   1
     number of bfgs steps    =   0

     enthalpy           new  =    -224.1561333179 Ry

     new trust radius        =       0.5000000000 bohr
ibrav =      4
 celldm(1) =      5.27342158
 celldm(3) =      1.79843058
Input lattice vectors:
     1.05347730     0.03247832     0.03859714
    -0.49861160     0.92857727     0.03859714
     0.06302914     0.10916967     1.89258302
New lattice vectors in INITIAL alat:
     1.05468432     0.00000000     0.00000000
    -0.52734216     0.91338341     0.00000000
     0.00000000     0.00000000     1.89677652
New lattice vectors in NEW alat (for information only):
     1.00000000     0.00000000     0.00000000
    -0.50000000     0.86602540     0.00000000
     0.00000000     0.00000000     1.79843058
Discrepancy in bohr =     0.050458    0.050458    0.126128
     new conv_thr            =       0.0000010000 Ry

     new unit-cell volume =    228.40299 a.u.^3 (    33.84583 Ang^3 )
     density =     17.51371 g/cm^3

CELL_PARAMETERS (alat=  5.00000000)
   1.054684316   0.000000000   0.000000000
  -0.527342158   0.913383410   0.000000000
   0.000000000   0.000000000   1.896776523

ATOMIC_POSITIONS (crystal)
Hf           -0.0414081169       -0.0414081169       -0.0557403528
Hf            0.3747381169        0.3747381169        0.3890703528



     Writing config-only to output data dir ./temp/Hf.save/
     NEW-OLD atomic charge density approx. for the potential
     extrapolated charge   29.42384, renormalised to   24.00000

     total cpu time spent up to now is       10.1 secs

     Self-consistent Calculation

     iteration #  1     ecut=    30.00 Ry     beta= 0.70
     Davidson diagonalization with overlap
     c_bands:  1 eigenvalues not converged
     c_bands:  1 eigenvalues not converged
     c_bands:  1 eigenvalues not converged
     c_bands:  1 eigenvalues not converged
     c_bands:  1 eigenvalues not converged
     ethr =  1.00E-06,  avg # of iterations = 16.2

     total cpu time spent up to now is       12.7 secs

     total energy              =    -211.79383953 Ry
     estimated scf accuracy    <      16.44589624 Ry

     iteration #  2     ecut=    30.00 Ry     beta= 0.70
     Davidson diagonalization with overlap
     ethr =  1.00E-02,  avg # of iterations =  5.7

     total cpu time spent up to now is       14.2 secs

     total energy              =    -223.75347682 Ry
     estimated scf accuracy    <      32.45127428 Ry

     iteration #  3     ecut=    30.00 Ry     beta= 0.70
     Davidson diagonalization with overlap
     ethr =  1.00E-02,  avg # of iterations =  3.0

     total cpu time spent up to now is       15.3 secs

     total energy              =    -225.78665320 Ry
     estimated scf accuracy    <       4.56954103 Ry

     iteration #  4     ecut=    30.00 Ry     beta= 0.70
     Davidson diagonalization with overlap
     ethr =  1.00E-02,  avg # of iterations =  1.3

     total cpu time spent up to now is       16.2 secs

     total energy              =    -224.96968862 Ry
     estimated scf accuracy    <       2.55238616 Ry

     iteration #  5     ecut=    30.00 Ry     beta= 0.70
     Davidson diagonalization with overlap
     ethr =  1.00E-02,  avg # of iterations =  2.0

     total cpu time spent up to now is       17.1 secs

     total energy              =    -225.14338274 Ry
     estimated scf accuracy    <       0.16331984 Ry

     iteration #  6     ecut=    30.00 Ry     beta= 0.70
     Davidson diagonalization with overlap
     ethr =  6.80E-04,  avg # of iterations =  3.2

     total cpu time spent up to now is       18.1 secs

     total energy              =    -225.18132358 Ry
     estimated scf accuracy    <       0.00507039 Ry

     iteration #  7     ecut=    30.00 Ry     beta= 0.70
     Davidson diagonalization with overlap
     ethr =  2.11E-05,  avg # of iterations =  6.0

     total cpu time spent up to now is       19.2 secs

     total energy              =    -225.18274518 Ry
     estimated scf accuracy    <       0.00807541 Ry

     iteration #  8     ecut=    30.00 Ry     beta= 0.70
     Davidson diagonalization with overlap
     ethr =  2.11E-05,  avg # of iterations =  2.0

     total cpu time spent up to now is       20.2 secs

     total energy              =    -225.18294911 Ry
     estimated scf accuracy    <       0.00193716 Ry

     iteration #  9     ecut=    30.00 Ry     beta= 0.70
     Davidson diagonalization with overlap
     ethr =  8.07E-06,  avg # of iterations =  2.1

     total cpu time spent up to now is       21.1 secs

     total energy              =    -225.18326622 Ry
     estimated scf accuracy    <       0.00015673 Ry

     iteration # 10     ecut=    30.00 Ry     beta= 0.70
     Davidson diagonalization with overlap
     ethr =  6.53E-07,  avg # of iterations =  2.4

     total cpu time spent up to now is       22.1 secs

     total energy              =    -225.18332635 Ry
     estimated scf accuracy    <       0.00013500 Ry

     iteration # 11     ecut=    30.00 Ry     beta= 0.70
     Davidson diagonalization with overlap
     ethr =  5.62E-07,  avg # of iterations =  1.0

     total cpu time spent up to now is       22.9 secs

     total energy              =    -225.18331829 Ry
     estimated scf accuracy    <       0.00003365 Ry

     iteration # 12     ecut=    30.00 Ry     beta= 0.70
     Davidson diagonalization with overlap
     ethr =  1.40E-07,  avg # of iterations =  2.0

     total cpu time spent up to now is       23.8 secs

     End of self-consistent calculation

          k = 0.1185 0.2053 0.0659 (   491 PWs)   bands (ev):

   -41.0959 -40.8673 -11.2897 -10.4006  -9.9117  -9.5460  -9.4340  -9.4111
    14.0769  17.4656  19.0198  19.2962  19.7527  20.5101  21.2998  23.7983

          k = 0.1185 0.2053 0.1977 (   492 PWs)   bands (ev):

   -41.0643 -40.9264 -11.1514 -10.5313  -9.8256  -9.5297  -9.5213  -9.4409
    14.8847  16.5266  18.3340  19.1292  19.1812  19.9554  23.4704  23.9525

          k = 0.1185 0.4790 0.0659 (   489 PWs)   bands (ev):

   -40.9328 -40.7870 -11.4141 -11.2944 -10.3333 -10.0399  -9.7853  -9.6060
    16.3359  16.8347  17.6368  18.8957  19.8415  20.8783  22.2493  25.1681

          k = 0.1185 0.4790 0.1977 (   489 PWs)   bands (ev):

   -40.9371 -40.7979 -11.5143 -11.3752 -10.1643 -10.0478  -9.7471  -9.5721
    15.7494  16.0540  17.4695  17.9656  21.0185  21.8825  23.5224  24.9456

          k = 0.1185-0.3421 0.0659 (   488 PWs)   bands (ev):

   -41.0287 -40.7825 -11.2382 -10.8419 -10.4847  -9.8346  -9.6840  -9.3656
    15.7562  16.8905  18.1983  18.9659  19.3202  19.7913  23.5561  23.5802

          k = 0.1185-0.3421 0.1977 (   490 PWs)   bands (ev):

   -41.0079 -40.8194 -11.2128 -10.8910 -10.3416  -9.9050  -9.6576  -9.4450
    15.7784  16.2597  18.4465  18.9074  19.8152  20.2677  22.9537  24.2079

          k = 0.1185-0.0684 0.0659 (   503 PWs)   bands (ev):

   -41.2042 -40.9312 -11.4712  -9.7024  -9.6016  -9.5067  -9.4080  -9.1719
    12.8550  15.7716  18.4360  20.1011  20.9793  21.3674  21.6696  23.0075

          k = 0.1185-0.0684 0.1977 (   495 PWs)   bands (ev):

   -41.1405 -40.9547 -11.1988  -9.8181  -9.6650  -9.5361  -9.4781  -9.2144
    13.9648  15.2769  18.0816  20.3135  20.3778  21.4157  21.7848  22.7961

          k = 0.3556 0.6158 0.0659 (   487 PWs)   bands (ev):

   -40.9213 -40.7402 -11.1056 -11.0731 -10.6584 -10.5842 -10.1383  -9.3617
    16.1661  17.7267  17.9802  18.9158  19.6039  22.2863  22.5666  23.4799

          k = 0.3556 0.6158 0.1977 (   489 PWs)   bands (ev):

   -40.9420 -40.7538 -11.0627 -11.0579 -10.7148 -10.6415  -9.9903  -9.4558
    16.8555  17.8991  18.0696  18.5635  18.9447  20.3850  23.0798  24.3529

          k = 0.3556-0.2053 0.0659 (   488 PWs)   bands (ev):

   -41.0161 -40.7657 -11.2247 -11.1102 -10.7200  -9.9078  -9.5443  -9.2559
    15.3240  15.7071  16.0968  19.6623  21.2864  22.1544  23.6196  25.4114

          k = 0.3556-0.2053 0.1977 (   490 PWs)   bands (ev):

   -41.0185 -40.7876 -11.1644 -10.8990 -10.7778  -9.8621  -9.6848  -9.4331
    16.1392  16.2728  16.5442  18.1600  21.2545  22.3073  23.5399  24.2460

          k =-0.1185 0.2053-0.0659 (   491 PWs)   bands (ev):

   -41.1075 -40.8581 -11.3500 -10.1900 -10.0440  -9.5983  -9.5055  -9.2695
    14.0874  16.9799  17.7559  19.2231  20.1653  20.6126  22.6254  23.7340

          k = 0.1185-0.2053-0.0659 (   491 PWs)   bands (ev):

   -41.1097 -40.8554 -11.3315 -10.1699 -10.0992  -9.6116  -9.4190  -9.3302
    14.0797  16.9463  18.0000  19.5099  19.7408  21.0927  21.8135  23.8282

          k = 0.1185 0.2053-0.0659 (   491 PWs)   bands (ev):

   -41.1003 -40.8641 -11.3255 -10.3534  -9.9370  -9.5460  -9.4340  -9.3902
    14.0939  17.5531  18.2269  18.9953  20.2616  20.5765  21.8472  23.7554

          k =-0.1185 0.2053-0.1977 (   492 PWs)   bands (ev):

   -41.0898 -40.9020 -11.1395 -10.2354 -10.0143  -9.7180  -9.5508  -9.3409
    15.0454  16.1995  17.8811  19.4486  19.6958  20.5929  23.2137  23.6849

          k = 0.1185-0.2053-0.1977 (   492 PWs)   bands (ev):

   -41.0787 -40.9126 -11.1130 -10.2369 -10.0771  -9.6947  -9.4813  -9.4000
    14.9938  16.2651  18.0894  19.5368  20.0523  20.1673  22.6241  23.8594

          k = 0.1185 0.2053-0.1977 (   492 PWs)   bands (ev):

   -41.0842 -40.9057 -11.2028 -10.4742  -9.8527  -9.5286  -9.4932  -9.4419
    14.9864  16.2921  17.9377  19.0894  19.5035  20.0221  23.2960  23.9182

          k =-0.1185 0.4790-0.0659 (   489 PWs)   bands (ev):

   -40.9368 -40.7836 -11.3990 -11.2628 -10.4574 -10.0283  -9.8006  -9.5107
    16.3153  16.5670  17.7706  18.8082  19.8381  20.4121  22.7756  25.2405

          k = 0.1185-0.4790-0.0659 (   489 PWs)   bands (ev):

   -40.9424 -40.7777 -11.3631 -11.2818 -10.4939  -9.9710  -9.8381  -9.5138
    16.1886  17.0355  17.7040  18.4429  19.8395  20.7803  22.3531  25.3371

          k =-0.3556 0.3421 0.0659 (   489 PWs)   bands (ev):

   -40.9996 -40.7211 -11.3260 -11.0350 -10.8343 -10.1844  -9.7351  -9.2820
    15.5352  16.1016  16.5993  20.0566  20.7655  21.7812  23.4263  24.3303

          k = 0.3556-0.3421 0.0659 (   489 PWs)   bands (ev):

   -40.9696 -40.7516 -11.3240 -11.0681 -10.8265 -10.1337  -9.7821  -9.2592
    15.5193  16.1309  16.5763  19.6742  20.4668  22.5525  23.6924  24.3062

          k = 0.3556 0.3421-0.0659 (   489 PWs)   bands (ev):

   -40.9682 -40.7514 -11.4115 -11.3030 -10.3455 -10.0104  -9.8023  -9.5998
    16.2908  16.9061  17.5127  18.9828  19.8358  21.0772  22.0328  25.1470

          k =-0.1185 0.4790-0.1977 (   489 PWs)   bands (ev):

   -40.9508 -40.7844 -11.4779 -11.3268 -10.2987 -10.0565  -9.7484  -9.5121
    15.6191  15.9904  17.6712  18.3362  21.0476  21.7272  23.2143  24.5791

          k = 0.1185-0.4790-0.1977 (   489 PWs)   bands (ev):

   -40.9549 -40.7800 -11.4475 -11.3462 -10.3393 -10.0008  -9.7735  -9.5159
    15.7101  15.9759  17.8569  18.1652  20.9292  21.8408  23.0691  24.6381

          k =-0.3556 0.3421 0.1977 (   489 PWs)   bands (ev):

   -40.9742 -40.7649 -11.2702 -10.9020 -10.8567 -10.2080  -9.7296  -9.4656
    16.3974  16.8065  16.8618  18.3860  20.4167  21.2979  23.5067  24.0144

          k = 0.3556-0.3421 0.1977 (   489 PWs)   bands (ev):

   -40.9650 -40.7748 -11.2682 -10.9471 -10.8468 -10.1232  -9.8196  -9.4252
    16.3638  16.7428  17.0406  18.2293  19.7533  21.9087  23.9478  24.2440

          k = 0.3556 0.3421-0.1977 (   489 PWs)   bands (ev):

   -40.9468 -40.7877 -11.5125 -11.3785 -10.1962 -10.0046  -9.7652  -9.5632
    15.6708  16.1124  17.4436  18.0333  20.9690  21.9945  23.3806  24.8867

          k =-0.1185-0.3421-0.0659 (   488 PWs)   bands (ev):

   -40.9818 -40.8273 -11.2315 -10.9498 -10.3128  -9.8120  -9.6614  -9.5161
    15.7478  17.5760  18.1704  19.1691  19.7049  20.2705  22.1924  22.4685

          k = 0.1185 0.3421-0.0659 (   488 PWs)   bands (ev):

   -41.0046 -40.8044 -11.2749 -10.9212 -10.3034  -9.8132  -9.6597  -9.5067
    15.7477  17.4722  17.7967  19.3245  20.0396  20.2016  22.2286  22.6427

          k = 0.3556-0.0684 0.0659 (   488 PWs)   bands (ev):

   -41.0367 -40.7744 -11.1834 -10.8268 -10.5354  -9.9673  -9.5992  -9.3085
    15.5921  16.4620  17.1404  19.1684  20.8168  21.2746  21.6525  24.5820

          k =-0.3556 0.0684 0.0659 (   488 PWs)   bands (ev):

   -41.0221 -40.7896 -11.2015 -10.8475 -10.5005  -9.9340  -9.6568  -9.2768
    15.6012  16.4334  17.1167  18.9566  20.4606  21.2901  22.5166  24.6434

          k =-0.3556-0.0684-0.0659 (   488 PWs)   bands (ev):

   -41.0140 -40.7966 -11.1984 -10.8382 -10.5406  -9.8027  -9.6920  -9.3820
    15.7635  17.1576  18.2508  18.6394  19.2718  20.2212  22.6265  23.7343

          k =-0.1185-0.3421-0.1977 (   490 PWs)   bands (ev):

   -40.9735 -40.8532 -11.2842 -11.0516 -10.0977  -9.8090  -9.6690  -9.5438
    15.7369  16.6831  17.9492  18.4003  19.8743  20.0233  23.7515  24.9118

          k = 0.1185 0.3421-0.1977 (   490 PWs)   bands (ev):

   -41.0011 -40.8257 -11.3272 -11.0206 -10.0909  -9.8146  -9.6629  -9.5337
    15.7191  16.5307  17.8214  18.5445  19.9347  20.0877  23.6857  25.1953

          k = 0.3556-0.0684 0.1977 (   490 PWs)   bands (ev):

   -41.0117 -40.8175 -11.0384 -10.7273 -10.5898 -10.0113  -9.6098  -9.4858
    16.3034  16.7240  17.4123  18.4148  20.7574  21.1968  22.0297  23.4437

          k =-0.3556 0.0684 0.1977 (   490 PWs)   bands (ev):

   -41.0084 -40.8210 -11.0562 -10.7885 -10.5163  -9.9539  -9.7243  -9.4196
    16.4096  16.6203  17.3999  18.1914  20.2781  21.5007  22.8742  23.4063

          k =-0.3556-0.0684-0.1977 (   490 PWs)   bands (ev):

   -40.9880 -40.8388 -11.1684 -10.8998 -10.3986  -9.8702  -9.6549  -9.4664
    15.7910  16.3704  18.5923  18.9267  19.6252  20.5465  22.3325  24.1171

          k =-0.1185-0.0684-0.0659 (   503 PWs)   bands (ev):

   -41.2024 -40.9311 -11.4441  -9.8975  -9.5487  -9.3846  -9.3122  -9.2899
    12.8526  15.9783  18.7960  20.1785  20.4424  21.5760  22.1923  22.5618

          k = 0.1185 0.0684-0.0659 (   503 PWs)   bands (ev):

   -41.2024 -40.9315 -11.4615  -9.8475  -9.5794  -9.4415  -9.2964  -9.2461
    12.8640  15.9938  18.3822  20.0182  20.6651  21.4909  22.4126  22.5400

          k =-0.1185-0.0684-0.1977 (   495 PWs)   bands (ev):

   -41.1429 -40.9513 -11.1926 -10.0591  -9.5328  -9.4997  -9.3275  -9.2991
    13.9092  15.3763  18.2059  20.0607  20.3627  20.9445  22.2726  22.4949

          k = 0.1185 0.0684-0.1977 (   495 PWs)   bands (ev):

   -41.1454 -40.9485 -11.2174  -9.9992  -9.6052  -9.4900  -9.3111  -9.2831
    13.9607  15.3389  17.8497  20.0040  20.5444  20.9468  22.2641  22.4823

          k =-0.3556 0.6158-0.0659 (   487 PWs)   bands (ev):

   -40.9153 -40.7451 -11.2801 -11.0765 -10.5769 -10.3398 -10.1458  -9.5352
    17.0652  17.6310  18.3538  18.9560  19.6436  20.4828  21.6921  24.8387

          k = 0.3556-0.6158-0.0659 (   487 PWs)   bands (ev):

   -40.9141 -40.7457 -11.2283 -11.1200 -10.6192 -10.2945 -10.1544  -9.5399
    17.0646  17.7378  18.5790  18.7601  20.0015  20.2460  21.3170  24.7361

          k = 0.3556 0.6158-0.0659 (   487 PWs)   bands (ev):

   -40.9553 -40.7053 -11.1062 -11.0065 -10.6766 -10.6579 -10.1008  -9.3775
    16.1884  17.5849  18.1285  19.4252  19.6922  21.6633  22.2867  23.3035

          k =-0.3556 0.6158-0.1977 (   489 PWs)   bands (ev):

   -40.9177 -40.7762 -11.3628 -11.1510 -10.5483 -10.3410  -9.9766  -9.5395
    16.6502  16.9994  18.0031  18.4809  20.4080  20.8676  22.3458  24.0634

          k = 0.3556-0.6158-0.1977 (   489 PWs)   bands (ev):

   -40.9352 -40.7586 -11.3192 -11.1885 -10.5741 -10.3204  -9.9697  -9.5492
    16.7153  16.9870  18.0706  18.6174  20.2075  20.8854  22.1712  24.1141

          k = 0.3556 0.6158-0.1977 (   489 PWs)   bands (ev):

   -40.9624 -40.7330 -11.0575 -10.9895 -10.7310 -10.7152  -9.9588  -9.4736
    16.8867  17.6014  18.5977  18.7571  19.2114  19.8261  22.7615  24.7946

          k =-0.3556-0.2053-0.0659 (   488 PWs)   bands (ev):

   -40.9799 -40.8007 -11.3223 -11.1915 -10.4553  -9.7774  -9.6233  -9.4731
    15.6111  16.6253  17.7529  18.4733  19.7472  21.2312  23.6349  24.5923

          k = 0.3556 0.2053-0.0659 (   488 PWs)   bands (ev):

   -41.0001 -40.7800 -11.3627 -11.1679 -10.4380  -9.8001  -9.5933  -9.4774
    15.6010  16.5140  17.4319  18.9041  19.8815  21.0244  23.5275  24.8374

          k =-0.3556-0.2053-0.1977 (   490 PWs)   bands (ev):

   -40.9725 -40.8295 -11.4026 -11.2663 -10.2486  -9.8270  -9.5961  -9.4709
    15.3435  15.7521  17.7069  17.8170  21.2233  22.1308  24.0363  24.9114

          k = 0.3556 0.2053-0.1977 (   490 PWs)   bands (ev):

   -40.9775 -40.8244 -11.4410 -11.2413 -10.2339  -9.8460  -9.5728  -9.4726
    15.2538  15.7656  17.3936  18.1338  21.5002  21.8515  23.9925  24.9360

     the Fermi energy is    19.5359 ev

!    total energy              =    -225.18332465 Ry
     estimated scf accuracy    <       0.00000037 Ry
     smearing contrib. (-TS)   =      -0.00072393 Ry
     internal energy E=F+TS    =    -225.18260073 Ry

     The total energy is F=E-TS. E is the sum of the following terms:
     one-electron contribution =     -23.74024614 Ry
     hartree contribution      =      25.03124077 Ry
     xc contribution           =     -57.61913084 Ry
     ewald contribution        =    -168.85446452 Ry

     convergence has been achieved in  12 iterations

     Forces acting on atoms (cartesian axes, Ry/au):

     atom    1 type  1   force =    -0.01513304   -0.02621119   -0.13776642
     atom    2 type  1   force =     0.01513304    0.02621119    0.13776642

     Total force =     0.199477     Total SCF correction =     0.005043


     Computing stress (Cartesian axis) and pressure

          total   stress  (Ry/bohr**3)                   (kbar)     P=       10.04
   0.00040797   0.00035174   0.00016094           60.01       51.74       23.68
   0.00035174   0.00081412   0.00027876           51.74      119.76       41.01
   0.00016094   0.00027876  -0.00101736           23.68       41.01     -149.66

     Energy error            =      1.0E+00 Ry
     Gradient error          =      1.4E-01 Ry/Bohr
     Cell gradient error     =      1.5E+02 kbar

     number of scf cycles    =   2
     number of bfgs steps    =   1

     enthalpy           old  =    -224.1561333179 Ry
     enthalpy           new  =    -225.1833246522 Ry

     CASE: enthalpy          _new < enthalpy          _old

     new trust radius        =       0.1347911285 bohr
ibrav =      4
 celldm(1) =      5.30233751
 celldm(3) =      1.70936403
Input lattice vectors:
     1.06045361     0.00477985    -0.00257048
    -0.52608734     0.92076969    -0.00257048
    -0.00497354    -0.00861443     1.81269771
New lattice vectors in INITIAL alat:
     1.06046750     0.00000000     0.00000000
    -0.53023375     0.91839180     0.00000000
     0.00000000     0.00000000     1.81272500
New lattice vectors in NEW alat (for information only):
     1.00000000     0.00000000     0.00000000
    -0.50000000     0.86602540     0.00000000
     0.00000000     0.00000000     1.70936403
Discrepancy in bohr =     0.005427    0.005427    0.009947
     new conv_thr            =       0.0000010000 Ry

     new unit-cell volume =    220.68220 a.u.^3 (    32.70173 Ang^3 )
     density =     18.12644 g/cm^3

CELL_PARAMETERS (alat=  5.00000000)
   1.060467502   0.000000000   0.000000000
  -0.530233751   0.918391796   0.000000000
   0.000000000   0.000000000   1.812725002

ATOMIC_POSITIONS (crystal)
Hf           -0.0423689196       -0.0423689196       -0.0685663564
Hf            0.3756989196        0.3756989196        0.4018963564



     Writing config-only to output data dir ./temp/Hf.save/
     NEW-OLD atomic charge density approx. for the potential
     extrapolated charge   23.16046, renormalised to   24.00000

     total cpu time spent up to now is       25.2 secs

     Self-consistent Calculation

     iteration #  1     ecut=    30.00 Ry     beta= 0.70
     Davidson diagonalization with overlap
     c_bands:  1 eigenvalues not converged
     c_bands:  1 eigenvalues not converged
     ethr =  1.00E-06,  avg # of iterations = 12.2

     total cpu time spent up to now is       27.4 secs

     total energy              =    -225.17927987 Ry
     estimated scf accuracy    <       0.02296416 Ry

     iteration #  2     ecut=    30.00 Ry     beta= 0.70
     Davidson diagonalization with overlap
     ethr =  9.57E-05,  avg # of iterations =  3.0

     total cpu time spent up to now is       28.5 secs

     total energy              =    -225.21010223 Ry
     estimated scf accuracy    <       0.07347042 Ry

     iteration #  3     ecut=    30.00 Ry     beta= 0.70
     Davidson diagonalization with overlap
     ethr =  9.57E-05,  avg # of iterations =  2.0

     total cpu time spent up to now is       29.4 secs

     total energy              =    -225.21679494 Ry
     estimated scf accuracy    <       0.00650774 Ry

     iteration #  4     ecut=    30.00 Ry     beta= 0.70
     Davidson diagonalization with overlap
     ethr =  2.71E-05,  avg # of iterations =  1.1

     total cpu time spent up to now is       30.3 secs

     total energy              =    -225.21519911 Ry
     estimated scf accuracy    <       0.00349463 Ry

     iteration #  5     ecut=    30.00 Ry     beta= 0.70
     Davidson diagonalization with overlap
     ethr =  1.46E-05,  avg # of iterations =  2.0

     total cpu time spent up to now is       31.2 secs

     total energy              =    -225.21597915 Ry
     estimated scf accuracy    <       0.00003491 Ry

     iteration #  6     ecut=    30.00 Ry     beta= 0.70
     Davidson diagonalization with overlap
     ethr =  1.45E-07,  avg # of iterations =  3.3

     total cpu time spent up to now is       32.2 secs

     total energy              =    -225.21598041 Ry
     estimated scf accuracy    <       0.00001914 Ry

     iteration #  7     ecut=    30.00 Ry     beta= 0.70
     Davidson diagonalization with overlap
     ethr =  7.98E-08,  avg # of iterations =  1.5

     total cpu time spent up to now is       33.1 secs

     total energy              =    -225.21598089 Ry
     estimated scf accuracy    <       0.00000386 Ry

     iteration #  8     ecut=    30.00 Ry     beta= 0.70
     Davidson diagonalization with overlap
     ethr =  1.61E-08,  avg # of iterations =  2.0

     total cpu time spent up to now is       34.0 secs

     End of self-consistent calculation

          k = 0.1179 0.2042 0.0690 (   491 PWs)   bands (ev):

   -40.3316 -40.1151 -10.5090  -9.5540  -9.1606  -8.7538  -8.6321  -8.5579
    14.7018  18.2403  19.7482  20.1779  20.5520  21.3965  22.3754  24.5634

          k = 0.1179 0.2042 0.2069 (   492 PWs)   bands (ev):

   -40.2767 -40.1898 -10.2788  -9.7980  -9.0204  -8.7228  -8.7052  -8.6532
    15.6099  17.3557  19.2509  19.5785  19.9084  20.5624  24.2785  24.6620

          k = 0.1179 0.4764 0.0690 (   489 PWs)   bands (ev):

   -40.1611 -40.0581 -10.5198 -10.3914  -9.6355  -9.2162  -8.9957  -8.8134
    17.0413  17.7146  18.3204  19.8232  20.4680  21.6061  23.0799  26.0861

          k = 0.1179 0.4764 0.2069 (   489 PWs)   bands (ev):

   -40.1630 -40.0646 -10.7036 -10.5749  -9.3138  -9.2207  -8.9300  -8.7389
    16.3110  16.6622  18.1520  18.6493  21.7515  22.6550  24.6388  25.7236

          k = 0.1179-0.3403 0.0690 (   488 PWs)   bands (ev):

   -40.2609 -40.0439 -10.4237  -9.9710  -9.7206  -9.0205  -8.9058  -8.5247
    16.3941  17.7621  18.9542  19.7292  19.8415  20.5803  24.2626  24.7288

          k = 0.1179-0.3403 0.2069 (   490 PWs)   bands (ev):

   -40.2303 -40.0859 -10.3861 -10.0724  -9.4453  -9.1642  -8.8700  -8.6315
    16.4115  16.9857  19.1511  19.6463  20.5458  21.0882  23.7278  25.1573

          k = 0.1179-0.0681 0.0690 (   503 PWs)   bands (ev):

   -40.4297 -40.1805 -10.7400  -8.9111  -8.8527  -8.6712  -8.5126  -8.3765
    13.4762  16.4840  19.6119  20.5740  21.9962  22.2905  22.3873  23.4199

          k = 0.1179-0.0681 0.2069 (   495 PWs)   bands (ev):

   -40.3580 -40.2166 -10.2700  -9.1613  -8.8458  -8.7162  -8.6905  -8.4678
    14.7247  16.0661  19.3444  20.8083  21.1506  22.3252  22.6064  23.4098

          k = 0.3536 0.6125 0.0690 (   487 PWs)   bands (ev):

   -40.1723 -39.9947 -10.2684 -10.2585  -9.7855  -9.6885  -9.4527  -8.5231
    16.7697  18.2256  18.6468  19.6640  20.2154  23.2931  23.6527  24.5402

          k = 0.3536 0.6125 0.2069 (   489 PWs)   bands (ev):

   -40.1831 -40.0057 -10.2476 -10.1708  -9.8954  -9.8323  -9.1643  -8.6677
    17.5935  18.4421  18.7679  19.0776  19.7035  21.0646  24.2950  25.2945

          k = 0.3536-0.2042 0.0690 (   488 PWs)   bands (ev):

   -40.2609 -40.0129 -10.4162 -10.3434  -9.8410  -9.1546  -8.7091  -8.3820
    15.9351  16.3096  16.7759  20.5108  21.9533  22.7293  25.1395  26.3156

          k = 0.3536-0.2042 0.2069 (   490 PWs)   bands (ev):

   -40.2280 -40.0638 -10.2684 -10.0293  -9.9198  -9.1272  -8.9019  -8.6942
    16.9415  17.0764  17.2812  18.9138  21.9597  23.0844  24.2889  25.6999

          k =-0.1179 0.2042-0.0690 (   491 PWs)   bands (ev):

   -40.3369 -40.1121 -10.6027  -9.3684  -9.2395  -8.7905  -8.7058  -8.4116
    14.7095  17.6436  18.7143  19.8506  20.9356  21.5097  23.3435  24.5146

          k = 0.1179-0.2042-0.0690 (   491 PWs)   bands (ev):

   -40.3334 -40.1155 -10.5854  -9.3445  -9.3054  -8.8062  -8.6160  -8.4642
    14.7037  17.6334  18.8631  20.0060  20.6710  21.8946  22.7801  24.5802

          k = 0.1179 0.2042-0.0690 (   491 PWs)   bands (ev):

   -40.3398 -40.1077 -10.5441  -9.4690  -9.2233  -8.7538  -8.6320  -8.5399
    14.7149  18.2755  19.3461  19.7251  21.0908  21.4637  22.6061  24.5530

          k =-0.1179 0.2042-0.2069 (   492 PWs)   bands (ev):

   -40.3044 -40.1638 -10.2408  -9.4589  -9.1584  -9.0155  -8.7673  -8.5478
    15.7622  16.9863  18.8438  20.2261  20.3028  21.4705  24.1046  24.1929

          k = 0.1179-0.2042-0.2069 (   492 PWs)   bands (ev):

   -40.2930 -40.1746 -10.2042  -9.4904  -9.2497  -8.9398  -8.6805  -8.6274
    15.7245  17.0278  18.9781  20.2674  20.5754  21.1853  23.6123  24.4771

          k = 0.1179 0.2042-0.2069 (   492 PWs)   bands (ev):

   -40.3047 -40.1620 -10.3473  -9.7080  -9.0671  -8.7211  -8.6742  -8.6548
    15.6833  17.1887  18.8048  19.8600  19.9923  20.6338  24.1256  24.6557

          k =-0.1179 0.4764-0.0690 (   489 PWs)   bands (ev):

   -40.1740 -40.0459 -10.5244 -10.3544  -9.7322  -9.2252  -9.0068  -8.7100
    16.9944  17.5028  18.4182  19.5779  20.6856  20.9818  23.5679  26.1090

          k = 0.1179-0.4764-0.0690 (   489 PWs)   bands (ev):

   -40.1682 -40.0520 -10.4785 -10.3782  -9.7829  -9.1337  -9.0707  -8.7110
    16.9372  17.8195  18.3677  19.2597  20.7296  21.2547  23.2793  26.1694

          k =-0.3536 0.3403 0.0690 (   489 PWs)   bands (ev):

   -40.2452 -39.9756 -10.4825 -10.2777  -9.9538  -9.4011  -8.9311  -8.4134
    16.1295  16.6873  17.2659  20.7186  21.2415  22.9029  24.8271  25.4537

          k = 0.3536-0.3403 0.0690 (   489 PWs)   bands (ev):

   -40.2270 -39.9939 -10.4800 -10.3116  -9.9463  -9.3352  -8.9927  -8.3914
    16.1177  16.7108  17.2431  20.4750  21.0779  23.3650  25.0530  25.5053

          k = 0.3536 0.3403-0.0690 (   489 PWs)   bands (ev):

   -40.1828 -40.0379 -10.5127 -10.4040  -9.6445  -9.1742  -9.0273  -8.8085
    17.0002  17.7955  18.2457  19.8363  20.4770  21.7552  22.9015  26.0532

          k =-0.1179 0.4764-0.2069 (   489 PWs)   bands (ev):

   -40.1769 -40.0510 -10.6709 -10.5042  -9.4102  -9.2844  -8.9252  -8.6911
    16.2068  16.6268  18.3352  19.0366  21.7637  22.5783  24.2709  25.3982

          k = 0.1179-0.4764-0.2069 (   489 PWs)   bands (ev):

   -40.1667 -40.0616 -10.6290 -10.5364  -9.4837  -9.1926  -8.9527  -8.6937
    16.2886  16.5861  18.4637  18.9371  21.6824  22.6592  24.1640  25.4465

          k =-0.3536 0.3403 0.2069 (   489 PWs)   bands (ev):

   -40.1819 -40.0499 -10.3734 -10.0790  -9.9606  -9.4638  -8.9295  -8.7142
    17.1487  17.5536  17.6952  19.0145  20.9233  22.0418  24.5427  25.2680

          k = 0.3536-0.3403 0.2069 (   489 PWs)   bands (ev):

   -40.1968 -40.0348 -10.3705 -10.1169  -9.9758  -9.2973  -9.1058  -8.6532
    17.1241  17.5235  17.8205  18.9147  20.4236  22.4504  24.9244  25.5409

          k = 0.3536 0.3403-0.2069 (   489 PWs)   bands (ev):

   -40.1664 -40.0610 -10.7015 -10.5772  -9.3546  -9.1630  -8.9535  -8.7317
    16.2476  16.7172  18.1398  18.6957  21.6894  22.7603  24.5128  25.7001

          k =-0.1179-0.3403-0.0690 (   488 PWs)   bands (ev):

   -40.2168 -40.0862 -10.3560 -10.0718  -9.6260  -8.9989  -8.8616  -8.6994
    16.3834  18.3835  18.9696  20.0479  20.4803  21.0176  23.0211  23.4021

          k = 0.1179 0.3403-0.0690 (   488 PWs)   bands (ev):

   -40.2418 -40.0614 -10.4120 -10.0154  -9.6258  -9.0022  -8.8587  -8.6960
    16.3803  18.3617  18.6622  20.1610  20.7276  20.9729  22.9219  23.5578

          k = 0.3536-0.0681 0.0690 (   488 PWs)   bands (ev):

   -40.2666 -40.0387 -10.4195 -10.0121  -9.6840  -9.1738  -8.7970  -8.4353
    16.1975  17.1309  17.7790  19.8130  21.4691  22.0612  22.8055  25.6521

          k =-0.3536 0.0681 0.0690 (   488 PWs)   bands (ev):

   -40.2656 -40.0395 -10.4388 -10.0293  -9.6458  -9.1339  -8.8648  -8.4065
    16.2024  17.1161  17.7591  19.7005  21.1495  22.1851  23.3037  25.7375

          k =-0.3536-0.0681-0.0690 (   488 PWs)   bands (ev):

   -40.2449 -40.0594 -10.3769  -9.9643  -9.7968  -8.9649  -8.9266  -8.5408
    16.4044  17.9099  19.1060  19.3844  19.8522  20.8689  23.7691  24.7006

          k =-0.1179-0.3403-0.2069 (   490 PWs)   bands (ev):

   -40.2015 -40.1129 -10.4651 -10.2842  -9.2287  -8.9777  -8.8860  -8.7185
    16.3725  17.3283  18.6756  19.0414  20.5672  20.6850  24.7556  26.1253

          k = 0.1179 0.3403-0.2069 (   490 PWs)   bands (ev):

   -40.2254 -40.0903 -10.5223 -10.2332  -9.2217  -8.9914  -8.8756  -8.7114
    16.3496  17.2452  18.5708  19.1573  20.5713  20.7665  24.6976  26.0414

          k = 0.3536-0.0681 0.2069 (   490 PWs)   bands (ev):

   -40.2257 -40.0924 -10.1521  -9.8451  -9.7800  -9.2717  -8.8194  -8.7212
    17.0375  17.4194  18.2007  19.1504  21.2510  22.0404  23.1747  24.3580

          k =-0.3536 0.0681 0.2069 (   490 PWs)   bands (ev):

   -40.2248 -40.0932 -10.1704  -9.9553  -9.6477  -9.1826  -8.9995  -8.6310
    17.1063  17.3579  18.2000  19.0006  20.8889  22.2812  23.7297  24.3409

          k =-0.3536-0.0681-0.2069 (   490 PWs)   bands (ev):

   -40.2067 -40.1092 -10.3273 -10.1009  -9.5314  -9.0963  -8.8613  -8.6567
    16.4331  17.0300  19.2397  19.7518  20.3886  21.2205  23.3687  25.1750

          k =-0.1179-0.0681-0.0690 (   503 PWs)   bands (ev):

   -40.4330 -40.1758 -10.7037  -9.0879  -8.7667  -8.5454  -8.5114  -8.4699
    13.4745  16.7236  19.9441  20.8433  21.1603  22.4504  23.0118  23.4725

          k = 0.1179 0.0681-0.0690 (   503 PWs)   bands (ev):

   -40.4366 -40.1723 -10.7190  -9.0194  -8.8096  -8.6289  -8.5004  -8.4042
    13.4832  16.7283  19.6076  20.7073  21.3945  22.3660  23.1581  23.4250

          k =-0.1179-0.0681-0.2069 (   495 PWs)   bands (ev):

   -40.3632 -40.2111 -10.2718  -9.3681  -8.7627  -8.6763  -8.5518  -8.5161
    14.6683  16.1783  19.4360  20.4774  21.2106  21.6316  22.9665  23.2349

          k = 0.1179 0.0681-0.2069 (   495 PWs)   bands (ev):

   -40.3630 -40.2110 -10.3060  -9.2842  -8.8518  -8.6769  -8.5318  -8.4919
    14.7080  16.1491  19.0874  20.5502  21.3271  21.6208  22.9719  23.2289

          k =-0.3536 0.6125-0.0690 (   487 PWs)   bands (ev):

   -40.1557 -40.0102 -10.4087 -10.1741  -9.7215  -9.6153  -9.3748  -8.7298
    17.7705  18.4099  18.9163  19.4399  20.4554  21.3440  22.6624  25.9289

          k = 0.3536-0.6125-0.0690 (   487 PWs)   bands (ev):

   -40.1419 -40.0246 -10.3215 -10.2508  -9.8269  -9.4809  -9.4109  -8.7346
    17.7678  18.4650  19.1225  19.3002  20.6376  21.2287  22.3988  25.8346

          k = 0.3536 0.6125-0.0690 (   487 PWs)   bands (ev):

   -40.1880 -39.9794 -10.2686 -10.1698  -9.8576  -9.7854  -9.3594  -8.5391
    16.7858  18.1514  18.7349  19.9738  20.2689  22.8977  23.4602  24.4152

          k =-0.3536 0.6125-0.2069 (   489 PWs)   bands (ev):

   -40.1611 -40.0263 -10.5594 -10.3453  -9.6907  -9.5325  -9.1088  -8.7262
    17.2241  17.5683  18.6674  18.9307  21.2276  21.6622  23.4748  25.0607

          k = 0.3536-0.6125-0.2069 (   489 PWs)   bands (ev):

   -40.1406 -40.0476 -10.4947 -10.4065  -9.7227  -9.5060  -9.0985  -8.7357
    17.2711  17.5589  18.6887  19.0468  21.0667  21.7182  23.3239  25.1118

          k = 0.3536 0.6125-0.2069 (   489 PWs)   bands (ev):

   -40.1598 -40.0300 -10.1685 -10.1420  -9.9708  -9.8979  -9.1126  -8.6878
    17.6166  18.2238  19.0987  19.4393  19.6065  20.7801  24.0200  25.4687

          k =-0.3536-0.2042-0.0690 (   488 PWs)   bands (ev):

   -40.2090 -40.0631 -10.4378 -10.2941  -9.7663  -8.9327  -8.8618  -8.6696
    16.3105  17.4649  18.4873  19.3734  20.6632  21.7968  24.2021  25.3922

          k = 0.3536 0.2042-0.0690 (   488 PWs)   bands (ev):

   -40.2309 -40.0412 -10.4910 -10.2563  -9.7437  -8.9798  -8.8114  -8.6772
    16.2958  17.4117  18.2558  19.7078  20.6958  21.6500  24.1291  25.5554

          k =-0.3536-0.2042-0.2069 (   490 PWs)   bands (ev):

   -40.1829 -40.1048 -10.5859 -10.4683  -9.3764  -9.0257  -8.8028  -8.6445
    15.9446  16.4220  18.4034  18.5377  22.0819  22.8122  24.9289  25.7351

          k = 0.3536 0.2042-0.2069 (   490 PWs)   bands (ev):

   -40.2045 -40.0833 -10.6365 -10.4277  -9.3517  -9.0607  -8.7786  -8.6453
    15.8708  16.4535  18.1578  18.7785  22.2484  22.6340  24.8979  25.7463

     the Fermi energy is    20.2568 ev

!    total energy              =    -225.21598107 Ry
     estimated scf accuracy    <       0.00000031 Ry
     smearing contrib. (-TS)   =      -0.00325488 Ry
     internal energy E=F+TS    =    -225.21272619 Ry

     The total energy is F=E-TS. E is the sum of the following terms:
     one-electron contribution =     -17.88241868 Ry
     hartree contribution      =      22.81986616 Ry
     xc contribution           =     -57.66855252 Ry
     ewald contribution        =    -172.48162115 Ry

     convergence has been achieved in   8 iterations

     Forces acting on atoms (cartesian axes, Ry/au):

     atom    1 type  1   force =    -0.01319415   -0.02285293   -0.07749769
     atom    2 type  1   force =     0.01319415    0.02285293    0.07749769

     Total force =     0.115778     Total SCF correction =     0.002653


     Computing stress (Cartesian axis) and pressure

          total   stress  (Ry/bohr**3)                   (kbar)     P=       65.19
   0.00042195   0.00032570   0.00009198           62.07       47.91       13.53
   0.00032570   0.00079803   0.00015932           47.91      117.39       23.44
   0.00009198   0.00015932   0.00010947           13.53       23.44       16.10

     Energy error            =      3.3E-02 Ry
     Gradient error          =      7.7E-02 Ry/Bohr
     Cell gradient error     =      1.2E+02 kbar

     number of scf cycles    =   3
     number of bfgs steps    =   2

     enthalpy           old  =    -225.1833246522 Ry
     enthalpy           new  =    -225.2159810736 Ry

     CASE: enthalpy          _new < enthalpy          _old

     new trust radius        =       0.0901505339 bohr
ibrav =      4
 celldm(1) =      5.36484054
 celldm(3) =      1.64329835
Input lattice vectors:
     1.07295047     0.00519642    -0.00329333
    -0.53197500     0.93180058    -0.00329333
    -0.00522216    -0.00904504     1.76317579
New lattice vectors in INITIAL alat:
     1.07296811     0.00000000     0.00000000
    -0.53648405     0.92921764     0.00000000
     0.00000000     0.00000000     1.76320672
New lattice vectors in NEW alat (for information only):
     1.00000000     0.00000000     0.00000000
    -0.50000000     0.86602540     0.00000000
     0.00000000     0.00000000     1.64329835
Discrepancy in bohr =     0.006152    0.006152    0.010444
     new conv_thr            =       0.0000007750 Ry

     new unit-cell volume =    219.74424 a.u.^3 (    32.56274 Ang^3 )
     density =     18.20381 g/cm^3

CELL_PARAMETERS (alat=  5.00000000)
   1.072968108   0.000000000   0.000000000
  -0.536484054   0.929217639   0.000000000
   0.000000000   0.000000000   1.763206720

ATOMIC_POSITIONS (crystal)
Hf           -0.0446509942       -0.0446509942       -0.0784227624
Hf            0.3779809942        0.3779809942        0.4117527624



     Writing config-only to output data dir ./temp/Hf.save/
     NEW-OLD atomic charge density approx. for the potential
     extrapolated charge   23.89757, renormalised to   24.00000

     total cpu time spent up to now is       35.4 secs

     Self-consistent Calculation

     iteration #  1     ecut=    30.00 Ry     beta= 0.70
     Davidson diagonalization with overlap
     c_bands:  1 eigenvalues not converged
     ethr =  1.00E-06,  avg # of iterations = 10.7

     total cpu time spent up to now is       37.4 secs

     total energy              =    -225.22052585 Ry
     estimated scf accuracy    <       0.00902325 Ry

     iteration #  2     ecut=    30.00 Ry     beta= 0.70
     Davidson diagonalization with overlap
     ethr =  3.76E-05,  avg # of iterations =  2.8

     total cpu time spent up to now is       38.4 secs

     total energy              =    -225.22157685 Ry
     estimated scf accuracy    <       0.02040037 Ry

     iteration #  3     ecut=    30.00 Ry     beta= 0.70
     Davidson diagonalization with overlap
     ethr =  3.76E-05,  avg # of iterations =  2.0

     total cpu time spent up to now is       39.4 secs

     total energy              =    -225.22522445 Ry
     estimated scf accuracy    <       0.00012634 Ry

     iteration #  4     ecut=    30.00 Ry     beta= 0.70
     Davidson diagonalization with overlap
     ethr =  5.26E-07,  avg # of iterations =  2.4

     total cpu time spent up to now is       40.4 secs

     total energy              =    -225.22525007 Ry
     estimated scf accuracy    <       0.00001287 Ry

     iteration #  5     ecut=    30.00 Ry     beta= 0.70
     Davidson diagonalization with overlap
     ethr =  5.36E-08,  avg # of iterations =  3.5

     total cpu time spent up to now is       41.4 secs

     total energy              =    -225.22524795 Ry
     estimated scf accuracy    <       0.00004702 Ry

     iteration #  6     ecut=    30.00 Ry     beta= 0.70
     Davidson diagonalization with overlap
     ethr =  5.36E-08,  avg # of iterations =  3.0

     total cpu time spent up to now is       42.3 secs

     End of self-consistent calculation

          k = 0.1165 0.2018 0.0709 (   491 PWs)   bands (ev):

   -40.2277 -39.9978 -10.4375  -9.3962  -9.1073  -8.6891  -8.5589  -8.4083
    14.7440  18.3098  19.7976  20.1413  20.9773  21.6201  22.5753  24.6181

          k = 0.1165 0.2018 0.2127 (   492 PWs)   bands (ev):

   -40.1571 -40.0834 -10.1766  -9.7227  -8.9214  -8.6458  -8.5925  -8.5460
    15.7221  17.4786  19.3559  19.6097  19.9711  20.5827  24.2680  24.6557

          k = 0.1165 0.4708 0.0709 (   489 PWs)   bands (ev):

   -40.0605 -39.9684 -10.3160 -10.1548  -9.6137  -9.0895  -8.9181  -8.7240
    17.1506  17.9157  18.5060  20.0639  20.4758  21.6860  23.1828  26.1067

          k = 0.1165 0.4708 0.2127 (   489 PWs)   bands (ev):

   -40.0410 -39.9903 -10.5711 -10.4549  -9.2002  -9.0709  -8.8083  -8.5882
    16.3561  16.7360  18.2564  18.7405  21.7742  22.7005  24.8731  25.8970

          k = 0.1165-0.3363 0.0709 (   488 PWs)   bands (ev):

   -40.1526 -39.9477 -10.3182  -9.7606  -9.6553  -8.9123  -8.8335  -8.3955
    16.4348  18.0081  19.0923  19.6850  19.8468  20.7293  24.3041  25.1284

          k = 0.1165-0.3363 0.2127 (   490 PWs)   bands (ev):

   -40.1040 -40.0064 -10.2610  -9.9480  -9.2879  -9.0889  -8.7843  -8.5036
    16.4871  17.0948  19.2429  19.7660  20.5533  21.2423  23.7313  25.3964

          k = 0.1165-0.0673 0.0709 (   503 PWs)   bands (ev):

   -40.3157 -40.0634 -10.6840  -8.8495  -8.8360  -8.5777  -8.3446  -8.2846
    13.5373  16.5439  20.0621  20.4019  22.2150  22.5036  22.5770  23.0933

          k = 0.1165-0.0673 0.2127 (   495 PWs)   bands (ev):

   -40.2302 -40.1153 -10.0864  -9.1541  -8.7574  -8.6413  -8.5996  -8.4502
    14.8556  16.2042  19.8415  20.7714  21.2237  22.5952  22.6789  23.3620

          k = 0.3495 0.6053 0.0709 (   487 PWs)   bands (ev):

   -40.0857 -39.8977 -10.1522 -10.0927  -9.5770  -9.5615  -9.3724  -8.4025
    16.8659  18.1598  18.6373  19.8468  20.1779  23.5077  23.7743  24.9798

          k = 0.3495 0.6053 0.2127 (   489 PWs)   bands (ev):

   -40.0613 -39.9355 -10.1352  -9.9549  -9.7676  -9.7294  -9.0196  -8.5487
    17.7001  18.3426  19.0053  19.0520  19.7826  21.1204  24.5271  25.6855

          k = 0.3495-0.2018 0.0709 (   488 PWs)   bands (ev):

   -40.1658 -39.9058 -10.3615 -10.1805  -9.6230  -9.1244  -8.5930  -8.2292
    15.9981  16.4076  16.8305  20.5912  21.7558  22.9681  25.4984  26.5817

          k = 0.3495-0.2018 0.2127 (   490 PWs)   bands (ev):

   -40.0963 -39.9908 -10.0395  -9.8966  -9.7282  -9.1352  -8.7568  -8.6735
    17.1264  17.2392  17.4256  19.0475  22.0733  23.0780  24.2967  26.0887

          k =-0.1165 0.2018-0.0709 (   491 PWs)   bands (ev):

   -40.2227 -40.0043 -10.5403  -9.2460  -9.1697  -8.7198  -8.5943  -8.2694
    14.7490  17.6362  18.9970  19.8611  21.0116  21.6857  23.4364  24.5462

          k = 0.1165-0.2018-0.0709 (   491 PWs)   bands (ev):

   -40.2211 -40.0059 -10.5326  -9.2360  -9.2012  -8.7237  -8.5586  -8.2885
    14.7463  17.6370  19.0435  19.9152  20.9157  21.8168  23.2468  24.5756

          k = 0.1165 0.2018-0.0709 (   491 PWs)   bands (ev):

   -40.2304 -39.9953 -10.4534  -9.3292  -9.1647  -8.6891  -8.5590  -8.3999
    14.7496  18.3150  19.7873  19.8450  21.1888  21.6526  22.6223  24.4448

          k =-0.1165 0.2018-0.2127 (   492 PWs)   bands (ev):

   -40.1719 -40.0705 -10.0779  -9.3959  -9.0581  -8.9347  -8.6862  -8.4735
    15.8435  17.1084  19.0891  20.3112  20.4237  21.6492  23.9854  24.2285

          k = 0.1165-0.2018-0.2127 (   492 PWs)   bands (ev):

   -40.1666 -40.0757 -10.0560  -9.4266  -9.1059  -8.8830  -8.6460  -8.5101
    15.8291  17.1229  19.1281  20.3408  20.5278  21.5415  23.7891  24.3603

          k = 0.1165 0.2018-0.2127 (   492 PWs)   bands (ev):

   -40.1723 -40.0684 -10.2139  -9.6708  -8.9487  -8.6446  -8.5936  -8.5310
    15.7505  17.4176  19.1008  19.8519  19.9463  20.6173  24.2111  24.6571

          k =-0.1165 0.4708-0.0709 (   489 PWs)   bands (ev):

   -40.0730 -39.9559 -10.3339 -10.1059  -9.7100  -9.1100  -8.9219  -8.6120
    17.1042  17.7803  18.5372  19.6638  20.8234  21.0053  23.6119  26.2162

          k = 0.1165-0.4708-0.0709 (   489 PWs)   bands (ev):

   -40.0701 -39.9591 -10.3077 -10.1197  -9.7388  -9.0642  -8.9508  -8.6132
    17.0863  17.8821  18.5399  19.5245  20.8523  21.1095  23.5054  26.2329

          k =-0.3495 0.3363 0.0709 (   489 PWs)   bands (ev):

   -40.1501 -39.8798 -10.2942 -10.2405  -9.7273  -9.3156  -8.8359  -8.2614
    16.2352  16.7184  17.2921  20.6605  21.0566  23.4287  25.1244  25.8753

          k = 0.3495-0.3363 0.0709 (   489 PWs)   bands (ev):

   -40.1437 -39.8861 -10.2897 -10.2588  -9.7238  -9.2844  -8.8660  -8.2513
    16.2305  16.7279  17.2816  20.5798  21.0112  23.5711  25.2080  25.9092

          k = 0.3495 0.3363-0.0709 (   489 PWs)   bands (ev):

   -40.0688 -39.9611 -10.3123 -10.1616  -9.6165  -9.0643  -8.9394  -8.7217
    17.1337  17.9520  18.4817  20.0458  20.4961  21.7394  23.1085  26.1059

          k =-0.1165 0.4708-0.2127 (   489 PWs)   bands (ev):

   -40.0488 -39.9835 -10.5350 -10.3668  -9.2792  -9.1647  -8.8079  -8.5479
    16.2987  16.6776  18.4518  19.1206  21.8102  22.6816  24.3992  25.6348

          k = 0.1165-0.4708-0.2127 (   489 PWs)   bands (ev):

   -40.0381 -39.9945 -10.5106 -10.3880  -9.3225  -9.1147  -8.8156  -8.5507
    16.3305  16.6584  18.5001  19.0900  21.7749  22.7165  24.3570  25.6517

          k =-0.3495 0.3363 0.2127 (   489 PWs)   bands (ev):

   -40.0675 -39.9690 -10.1412  -9.9285  -9.8086  -9.3852  -8.8886  -8.6003
    17.2844  17.6736  17.9044  19.0649  20.7720  22.2336  24.8367  25.5777

          k = 0.3495-0.3363 0.2127 (   489 PWs)   bands (ev):

   -40.0769 -39.9592 -10.1377  -9.9605  -9.8119  -9.2893  -8.9845  -8.5683
    17.2755  17.6644  17.9513  19.0313  20.5779  22.3798  25.0017  25.6936

          k = 0.3495 0.3363-0.2127 (   489 PWs)   bands (ev):

   -40.0413 -39.9900 -10.5705 -10.4554  -9.2159  -9.0481  -8.8176  -8.5859
    16.3321  16.7588  18.2507  18.7595  21.7439  22.7460  24.8159  25.8962

          k =-0.1165-0.3363-0.0709 (   488 PWs)   bands (ev):

   -40.1223 -39.9771 -10.2281  -9.8369  -9.5955  -8.9053  -8.7752  -8.5907
    16.4184  18.5286  19.1475  20.2490  20.5634  21.1124  23.0642  23.7160

          k = 0.1165 0.3363-0.0709 (   488 PWs)   bands (ev):

   -40.1315 -39.9679 -10.2580  -9.7769  -9.6245  -8.9076  -8.7741  -8.5894
    16.4187  18.5282  19.0185  20.2758  20.6655  21.1133  23.0145  23.7595

          k = 0.3495-0.0673 0.0709 (   488 PWs)   bands (ev):

   -40.1633 -39.9378 -10.3695  -9.8661  -9.5047  -9.0876  -8.7155  -8.2734
    16.2269  17.2475  17.7629  19.7962  21.2788  22.2192  23.3374  25.9866

          k =-0.3495 0.0673 0.0709 (   488 PWs)   bands (ev):

   -40.1637 -39.9371 -10.3789  -9.8719  -9.4852  -9.0719  -8.7470  -8.2610
    16.2293  17.2429  17.7536  19.7614  21.1748  22.2707  23.4904  26.0223

          k =-0.3495-0.0673-0.0709 (   488 PWs)   bands (ev):

   -40.1462 -39.9540 -10.2950  -9.7496  -9.7040  -8.8748  -8.8499  -8.4037
    16.4379  18.0528  19.1601  19.6551  19.7550  20.8295  24.1647  25.0732

          k =-0.1165-0.3363-0.2127 (   490 PWs)   bands (ev):

   -40.0880 -40.0204 -10.3782 -10.1816  -9.0620  -8.8490  -8.8142  -8.5688
    16.4444  17.4001  18.7447  19.1232  20.5435  20.6948  25.0135  26.2560

          k = 0.1165 0.3363-0.2127 (   490 PWs)   bands (ev):

   -40.0989 -40.0101 -10.4093 -10.1508  -9.0593  -8.8635  -8.8041  -8.5650
    16.4388  17.3703  18.6976  19.1702  20.5374  20.7342  24.9857  26.2236

          k = 0.3495-0.0673 0.2127 (   490 PWs)   bands (ev):

   -40.0991 -40.0135  -9.9979  -9.7565  -9.5424  -9.2199  -8.7998  -8.5837
    17.1493  17.5140  18.3177  19.2290  21.1025  22.2341  23.5206  24.5341

          k =-0.3495 0.0673 0.2127 (   490 PWs)   bands (ev):

   -40.0985 -40.0140 -10.0134  -9.7924  -9.4784  -9.1857  -8.8847  -8.5446
    17.1729  17.4952  18.3178  19.1783  20.9550  22.3291  23.7150  24.5413

          k =-0.3495-0.0673-0.2127 (   490 PWs)   bands (ev):

   -40.0920 -40.0184 -10.2281  -9.9719  -9.3413  -9.0406  -8.7766  -8.5169
    16.4940  17.1071  19.2668  19.8498  20.4789  21.2719  23.6132  25.4112

          k =-0.1165-0.0673-0.0709 (   503 PWs)   bands (ev):

   -40.3247 -40.0533 -10.6449  -9.0104  -8.7080  -8.5048  -8.4367  -8.2962
    13.5366  16.8067  20.2444  20.7814  21.3465  22.5061  23.1625  23.6012

          k = 0.1165 0.0673-0.0709 (   503 PWs)   bands (ev):

   -40.3260 -40.0520 -10.6515  -8.9774  -8.7251  -8.5378  -8.4362  -8.2719
    13.5402  16.8060  20.1073  20.7346  21.4416  22.4712  23.2214  23.5952

          k =-0.1165-0.0673-0.2127 (   495 PWs)   bands (ev):

   -40.2336 -40.1116 -10.1106  -9.3268  -8.7232  -8.5797  -8.4917  -8.4470
    14.8063  16.3204  19.9873  20.2301  21.3646  21.6718  22.9898  23.3131

          k = 0.1165 0.0673-0.2127 (   495 PWs)   bands (ev):

   -40.2329 -40.1122 -10.1307  -9.2786  -8.7697  -8.5889  -8.4843  -8.4252
    14.8217  16.3084  19.7257  20.3811  21.4121  21.6630  22.9965  23.3131

          k =-0.3495 0.6053-0.0709 (   487 PWs)   bands (ev):

   -40.0559 -39.9264 -10.2265  -9.9511  -9.6340  -9.5318  -9.2410  -8.6325
    17.8927  18.5476  18.9492  19.3512  20.5929  21.5226  22.8256  26.2824

          k = 0.3495-0.6053-0.0709 (   487 PWs)   bands (ev):

   -40.0491 -39.9337 -10.1811  -9.9944  -9.7124  -9.4411  -9.2526  -8.6357
    17.8877  18.5655  19.0344  19.3043  20.6475  21.4895  22.7239  26.2430

          k = 0.3495 0.6053-0.0709 (   487 PWs)   bands (ev):

   -40.0897 -39.8940 -10.1102 -10.0927  -9.6718  -9.5771  -9.2972  -8.4105
    16.8720  18.1362  18.6700  19.9491  20.1970  23.3783  23.7048  24.9190

          k =-0.3495 0.6053-0.2127 (   489 PWs)   bands (ev):

   -40.0434 -39.9520 -10.4335 -10.2415  -9.5383  -9.3917  -8.9392  -8.5876
    17.2858  17.5788  18.7272  18.8654  21.3009  21.7655  23.7426  25.4551

          k = 0.3495-0.6053-0.2127 (   489 PWs)   bands (ev):

   -40.0243 -39.9716 -10.3976 -10.2778  -9.5524  -9.3797  -8.9317  -8.5929
    17.3022  17.5769  18.7221  18.9215  21.2334  21.7979  23.6799  25.4757

          k = 0.3495 0.6053-0.2127 (   489 PWs)   bands (ev):

   -40.0426 -39.9549 -10.0827  -9.9533  -9.8400  -9.7310  -8.9886  -8.5601
    17.7088  18.2720  19.0602  19.2382  19.7405  21.0276  24.4187  25.7551

          k =-0.3495-0.2018-0.0709 (   488 PWs)   bands (ev):

   -40.1114 -39.9588 -10.2864 -10.0305  -9.7366  -8.8318  -8.7956  -8.5741
    16.4120  17.6539  18.6662  19.6855  20.8065  21.6915  24.1340  25.4225

          k = 0.3495 0.2018-0.0709 (   488 PWs)   bands (ev):

   -40.1202 -39.9500 -10.3152 -10.0021  -9.7309  -8.8707  -8.7590  -8.5760
    16.4062  17.6426  18.5697  19.8207  20.8056  21.6369  24.1027  25.4864

          k =-0.3495-0.2018-0.2127 (   490 PWs)   bands (ev):

   -40.0587 -40.0232 -10.4806 -10.3309  -9.2075  -8.9356  -8.7065  -8.5104
    16.0019  16.5323  18.4561  18.7535  22.1527  22.7292  25.0357  25.8747

          k = 0.3495 0.2018-0.2127 (   490 PWs)   bands (ev):

   -40.0766 -40.0054 -10.5080 -10.3062  -9.1924  -8.9575  -8.6979  -8.5084
    15.9749  16.5469  18.3665  18.8364  22.2094  22.6693  25.0241  25.8782

     the Fermi energy is    20.3311 ev

!    total energy              =    -225.22525432 Ry
     estimated scf accuracy    <       0.00000049 Ry
     smearing contrib. (-TS)   =      -0.00633133 Ry
     internal energy E=F+TS    =    -225.21892299 Ry

     The total energy is F=E-TS. E is the sum of the following terms:
     one-electron contribution =     -16.61544492 Ry
     hartree contribution      =      22.28311655 Ry
     xc contribution           =     -57.66852758 Ry
     ewald contribution        =    -173.21806703 Ry

     convergence has been achieved in   6 iterations

     Forces acting on atoms (cartesian axes, Ry/au):

     atom    1 type  1   force =    -0.01114576   -0.01930502   -0.02535219
     atom    2 type  1   force =     0.01114576    0.01930502    0.02535219

     Total force =     0.047742     Total SCF correction =     0.003457


     Computing stress (Cartesian axis) and pressure

          total   stress  (Ry/bohr**3)                   (kbar)     P=       67.06
   0.00010133   0.00032676   0.00003013           14.91       48.07        4.43
   0.00032676   0.00047864   0.00005219           48.07       70.41        7.68
   0.00003013   0.00005219   0.00078770            4.43        7.68      115.88

     Energy error            =      9.3E-03 Ry
     Gradient error          =      2.5E-02 Ry/Bohr
     Cell gradient error     =      1.2E+02 kbar

     number of scf cycles    =   4
     number of bfgs steps    =   3

     enthalpy           old  =    -225.2159810736 Ry
     enthalpy           new  =    -225.2252543183 Ry

     CASE: enthalpy          _new < enthalpy          _old

     new trust radius        =       0.0333969734 bohr
ibrav =      4
 celldm(1) =      5.37071192
 celldm(3) =      1.64875891
Input lattice vectors:
     1.07411808     0.00673626    -0.00261280
    -0.53122527     0.93358168    -0.00261280
    -0.00434717    -0.00752951     1.77098049
New lattice vectors in INITIAL alat:
     1.07414238     0.00000000     0.00000000
    -0.53707119     0.93023459     0.00000000
     0.00000000     0.00000000     1.77100183
New lattice vectors in NEW alat (for information only):
     1.00000000     0.00000000     0.00000000
    -0.50000000     0.86602540     0.00000000
     0.00000000     0.00000000     1.64875891
Discrepancy in bohr =     0.007225    0.007225    0.008694
     new conv_thr            =       0.0000002535 Ry

     new unit-cell volume =    221.19910 a.u.^3 (    32.77833 Ang^3 )
     density =     18.08408 g/cm^3

CELL_PARAMETERS (alat=  5.00000000)
   1.074142384   0.000000000   0.000000000
  -0.537071192   0.930234592   0.000000000
   0.000000000   0.000000000   1.771001829

ATOMIC_POSITIONS (crystal)
Hf           -0.0471285825       -0.0471285825       -0.0802007433
Hf            0.3804585825        0.3804585825        0.4135307433



     Writing config-only to output data dir ./temp/Hf.save/
     NEW-OLD atomic charge density approx. for the potential
     extrapolated charge   24.15783, renormalised to   24.00000

     total cpu time spent up to now is       43.7 secs

     Self-consistent Calculation

     iteration #  1     ecut=    30.00 Ry     beta= 0.70
     Davidson diagonalization with overlap
     ethr =  1.00E-06,  avg # of iterations =  6.6

     total cpu time spent up to now is       45.2 secs

     total energy              =    -225.22584882 Ry
     estimated scf accuracy    <       0.00114969 Ry

     iteration #  2     ecut=    30.00 Ry     beta= 0.70
     Davidson diagonalization with overlap
     ethr =  4.79E-06,  avg # of iterations =  3.1

     total cpu time spent up to now is       46.3 secs

     total energy              =    -225.22690468 Ry
     estimated scf accuracy    <       0.00276928 Ry

     iteration #  3     ecut=    30.00 Ry     beta= 0.70
     Davidson diagonalization with overlap
     ethr =  4.79E-06,  avg # of iterations =  2.0

     total cpu time spent up to now is       47.3 secs

     total energy              =    -225.22728294 Ry
     estimated scf accuracy    <       0.00019696 Ry

     iteration #  4     ecut=    30.00 Ry     beta= 0.70
     Davidson diagonalization with overlap
     ethr =  8.21E-07,  avg # of iterations =  1.0

     total cpu time spent up to now is       48.1 secs

     total energy              =    -225.22727904 Ry
     estimated scf accuracy    <       0.00008708 Ry

     iteration #  5     ecut=    30.00 Ry     beta= 0.70
     Davidson diagonalization with overlap
     ethr =  3.63E-07,  avg # of iterations =  1.0

     total cpu time spent up to now is       49.0 secs

     total energy              =    -225.22723692 Ry
     estimated scf accuracy    <       0.00006604 Ry

     iteration #  6     ecut=    30.00 Ry     beta= 0.70
     Davidson diagonalization with overlap
     ethr =  2.75E-07,  avg # of iterations =  2.0

     total cpu time spent up to now is       50.0 secs

     total energy              =    -225.22725055 Ry
     estimated scf accuracy    <       0.00000214 Ry

     iteration #  7     ecut=    30.00 Ry     beta= 0.70
     Davidson diagonalization with overlap
     ethr =  8.90E-09,  avg # of iterations =  2.0

     total cpu time spent up to now is       50.9 secs

     total energy              =    -225.22725065 Ry
     estimated scf accuracy    <       0.00000041 Ry

     iteration #  8     ecut=    30.00 Ry     beta= 0.70
     Davidson diagonalization with overlap
     ethr =  1.70E-09,  avg # of iterations =  2.1

     total cpu time spent up to now is       51.9 secs

     End of self-consistent calculation

          k = 0.1164 0.2016 0.0706 (   491 PWs)   bands (ev):

   -40.3531 -40.1412 -10.5303  -9.5160  -9.2686  -8.8329  -8.7151  -8.5832
    14.6041  18.1690  19.6791  19.9750  20.8236  21.4914  22.4230  24.4537

          k = 0.1164 0.2016 0.2117 (   492 PWs)   bands (ev):

   -40.2895 -40.2203 -10.2832  -9.8373  -9.0827  -8.7920  -8.7463  -8.7117
    15.5828  17.3221  19.1794  19.5014  19.8565  20.4669  24.1209  24.4938

          k = 0.1164 0.4703 0.0706 (   489 PWs)   bands (ev):

   -40.1893 -40.1113 -10.4232 -10.2831  -9.7304  -9.2252  -9.0770  -8.9020
    17.0400  17.7762  18.3948  19.8754  20.3481  21.5316  23.0074  25.9213

          k = 0.1164 0.4703 0.2117 (   489 PWs)   bands (ev):

   -40.1710 -40.1321 -10.6747 -10.5750  -9.3409  -9.2131  -8.9603  -8.7587
    16.2431  16.6070  18.1498  18.6206  21.6099  22.5310  24.6992  25.7027

          k = 0.1164-0.3359 0.0706 (   488 PWs)   bands (ev):

   -40.2777 -40.0928 -10.4058  -9.8854  -9.8085  -9.0524  -8.9869  -8.5728
    16.2927  17.9018  18.9956  19.5590  19.6743  20.5807  24.1305  24.9414

          k = 0.1164-0.3359 0.2117 (   490 PWs)   bands (ev):

   -40.2307 -40.1501 -10.3594 -10.0773  -9.4354  -9.2277  -8.9365  -8.6738
    16.3601  16.9690  19.1428  19.6625  20.3975  21.0580  23.5690  25.2318

          k = 0.1164-0.0672 0.0706 (   503 PWs)   bands (ev):

[...]

          k = 0.3508-0.6077-0.0693 (   487 PWs)   bands (ev):

   -40.2884 -40.2460 -10.4207 -10.2725  -9.8487  -9.7202  -9.5823  -9.1557
    17.7937  18.2089  18.8101  18.9981  20.3802  20.9750  22.2294  25.9378

          k = 0.3508 0.6077-0.0693 (   487 PWs)   bands (ev):

   -40.3149 -40.2210 -10.3878 -10.2157  -9.9551  -9.8436  -9.6861  -8.8607
    16.6802  17.9174  18.3616  19.6625  19.9283  22.8777  23.4025  24.6153

          k =-0.3508 0.6077-0.2080 (   489 PWs)   bands (ev):

   -40.3049 -40.2477 -10.6034 -10.5117  -9.8341  -9.7227  -9.2237  -9.0263
    17.1400  17.2546  18.5438  18.6938  20.8787  21.3325  23.2849  24.8839

          k = 0.3508-0.6077-0.2080 (   489 PWs)   bands (ev):

   -40.3049 -40.2477 -10.6034 -10.5117  -9.8341  -9.7227  -9.2236  -9.0263
    17.1400  17.2546  18.5438  18.6938  20.8787  21.3326  23.2849  24.8839

          k = 0.3508 0.6077-0.2080 (   489 PWs)   bands (ev):

   -40.3103 -40.2432 -10.2671 -10.2651 -10.0876 -10.0201  -9.3404  -8.9619
    17.4864  18.2508  18.7941  18.8086  19.7182  20.2363  24.0788  25.1335

          k =-0.3508-0.2026-0.0693 (   488 PWs)   bands (ev):

   -40.3509 -40.2790 -10.4903 -10.3310  -9.8843  -9.2050  -9.0806  -9.0160
    16.1864  17.2375  18.7850  18.9238  20.4021  21.1975  24.4946  24.5478

          k = 0.3508 0.2026-0.0693 (   488 PWs)   bands (ev):

   -40.3509 -40.2790 -10.4904 -10.3310  -9.8843  -9.2051  -9.0806  -9.0160
    16.1864  17.2375  18.7843  18.9245  20.4021  21.1975  24.4939  24.5486

          k =-0.3508-0.2026-0.2080 (   490 PWs)   bands (ev):

   -40.3316 -40.3122 -10.6835 -10.5807  -9.4580  -9.2879  -9.0150  -8.9069
    15.7460  16.1841  18.3076  18.3684  21.9869  22.1692  24.9854  25.3359

          k = 0.3508 0.2026-0.2080 (   490 PWs)   bands (ev):

   -40.3317 -40.3122 -10.6835 -10.5807  -9.4580  -9.2879  -9.0150  -8.9069
    15.7460  16.1841  18.3072  18.3688  21.9870  22.1691  24.9854  25.3360

     the Fermi energy is    20.0039 ev

!    total energy              =    -225.23245835 Ry
     estimated scf accuracy    <          5.3E-09 Ry
     smearing contrib. (-TS)   =      -0.00829270 Ry
     internal energy E=F+TS    =    -225.22416565 Ry

     The total energy is F=E-TS. E is the sum of the following terms:
     one-electron contribution =     -17.46740096 Ry
     hartree contribution      =      22.43040656 Ry
     xc contribution           =     -57.62577173 Ry
     ewald contribution        =    -172.56139951 Ry

     convergence has been achieved in   6 iterations

     Forces acting on atoms (cartesian axes, Ry/au):

     atom    1 type  1   force =    -0.00014135   -0.00024483   -0.00130184
     atom    2 type  1   force =     0.00014135    0.00024483    0.00130184

     Total force =     0.001884     Total SCF correction =     0.000564
     SCF correction compared to forces is large: reduce conv_thr to get better values


     Computing stress (Cartesian axis) and pressure

          total   stress  (Ry/bohr**3)                   (kbar)     P=       24.13
   0.00003883   0.00027157   0.00000002            5.71       39.95        0.00
   0.00027157   0.00035242   0.00000004           39.95       51.84        0.01
   0.00000002   0.00000004   0.00010076            0.00        0.01       14.82

     Energy error            =      1.2E-05 Ry
     Gradient error          =      1.3E-03 Ry/Bohr
     Cell gradient error     =      5.2E+01 kbar

     number of scf cycles    =  11
     number of bfgs steps    =  10

     enthalpy           old  =    -225.2324459864 Ry
     enthalpy           new  =    -225.2324583521 Ry

     CASE: enthalpy          _new < enthalpy          _old

     new trust radius        =       0.0108033530 bohr
ibrav =      4
 celldm(1) =      5.34376563
 celldm(3) =      1.68748803
Input lattice vectors:
     1.06874999     0.00258629    -0.00005810
    -0.53213520     0.92685779    -0.00005810
    -0.00009811    -0.00016993     1.80350809
New lattice vectors in INITIAL alat:
     1.06875313     0.00000000     0.00000000
    -0.53437656     0.92556736     0.00000000
     0.00000000     0.00000000     1.80350810
New lattice vectors in NEW alat (for information only):
     1.00000000     0.00000000     0.00000000
    -0.50000000     0.86602540     0.00000000
     0.00000000     0.00000000     1.68748803
Discrepancy in bohr =     0.002587    0.002587    0.000196
     new conv_thr            =       0.0000000100 Ry

     new unit-cell volume =    223.00445 a.u.^3 (    33.04585 Ang^3 )
     density =     17.93768 g/cm^3

CELL_PARAMETERS (alat=  5.00000000)
   1.068753126   0.000000000   0.000000000
  -0.534376563   0.925567357   0.000000000
   0.000000000   0.000000000   1.803508103

ATOMIC_POSITIONS (crystal)
Hf           -0.0827403625       -0.0827403625       -0.0831096745
Hf            0.4160703625        0.4160703625        0.4164396745



     Writing config-only to output data dir ./temp/Hf.save/
     NEW-OLD atomic charge density approx. for the potential
     extrapolated charge   23.99810, renormalised to   24.00000

     total cpu time spent up to now is      105.4 secs

     Self-consistent Calculation

     iteration #  1     ecut=    30.00 Ry     beta= 0.70
     Davidson diagonalization with overlap
     ethr =  1.00E-06,  avg # of iterations =  2.0

     Threshold (ethr) on eigenvalues was too large:
     Diagonalizing with lowered threshold

     Davidson diagonalization with overlap
     ethr =  1.14E-09,  avg # of iterations =  4.7

     total cpu time spent up to now is      107.6 secs

     total energy              =    -225.23245265 Ry
     estimated scf accuracy    <       0.00000019 Ry

     iteration #  2     ecut=    30.00 Ry     beta= 0.70
     Davidson diagonalization with overlap
     ethr =  7.80E-10,  avg # of iterations =  3.0

     total cpu time spent up to now is      108.8 secs

     total energy              =    -225.23245278 Ry
     estimated scf accuracy    <       0.00000038 Ry

     iteration #  3     ecut=    30.00 Ry     beta= 0.70
     Davidson diagonalization with overlap
     ethr =  7.80E-10,  avg # of iterations =  2.0

     total cpu time spent up to now is      109.7 secs

     total energy              =    -225.23245284 Ry
     estimated scf accuracy    <       0.00000006 Ry

     iteration #  4     ecut=    30.00 Ry     beta= 0.70
     Davidson diagonalization with overlap
     ethr =  2.70E-10,  avg # of iterations =  1.3

     total cpu time spent up to now is      110.6 secs

     total energy              =    -225.23245284 Ry
     estimated scf accuracy    <       0.00000001 Ry

     iteration #  5     ecut=    30.00 Ry     beta= 0.70
     Davidson diagonalization with overlap
     ethr =  6.19E-11,  avg # of iterations =  2.0

     total cpu time spent up to now is      111.5 secs

     End of self-consistent calculation

          k = 0.1170 0.2026 0.0693 (   491 PWs)   bands (ev):

   -40.4566 -40.3297 -10.5039  -9.6329  -9.4692  -8.9368  -8.9034  -8.8547
    14.4520  17.9841  19.5611  20.0734  20.2483  21.3150  22.1875  24.2336

          k = 0.1170 0.2026 0.2079 (   492 PWs)   bands (ev):

   -40.4276 -40.3773 -10.3192  -9.9171  -9.2920  -8.9454  -8.9204  -8.9099
    15.4117  17.1454  18.9791  19.2838  19.7583  20.3687  24.0791  24.2883

          k = 0.1170 0.4727 0.0693 (   489 PWs)   bands (ev):

   -40.2902 -40.2888 -10.5132 -10.5113  -9.5742  -9.4339  -9.3262  -9.2112
    17.0435  17.4244  18.4628  19.2763  20.2834  21.3773  22.7996  25.6329

          k = 0.1170 0.4727 0.2079 (   489 PWs)   bands (ev):

   -40.3040 -40.2807 -10.7457 -10.7374  -9.4536  -9.3924  -9.0872  -9.0431
    16.1694  16.3487  18.0797  18.4442  21.4464  22.3438  24.4957  25.3828

          k = 0.1170-0.3376 0.0693 (   488 PWs)   bands (ev):

   -40.3827 -40.2721 -10.3822 -10.0521  -9.9793  -9.2025  -9.1559  -8.8445
    16.1498  17.7930  19.0202  19.3490  19.4751  20.2071  24.0815  24.6438

          k = 0.1170-0.3376 0.2079 (   490 PWs)   bands (ev):

   -40.3460 -40.3204 -10.4103 -10.2213  -9.5818  -9.3822  -9.1112  -8.9052
    16.2147  16.7959  19.1225  19.6010  20.2885  20.6387  23.4611  24.9988

          k = 0.1170-0.0675 0.0693 (   503 PWs)   bands (ev):

   -40.5496 -40.3952 -10.7580  -9.1109  -9.0924  -8.9067  -8.7490  -8.6443
    13.2329  16.2291  19.9542  19.9700  22.0074  22.1787  22.1948  22.7228

          k = 0.1170-0.0675 0.2079 (   495 PWs)   bands (ev):

   -40.4846 -40.4240 -10.2213  -9.4113  -9.0224  -8.9655  -8.9548  -8.7781
    14.5088  15.8924  19.5737  20.4025  20.9976  22.1072  22.4673  23.1593

          k = 0.3509 0.6077 0.0693 (   487 PWs)   bands (ev):

   -40.3125 -40.2188 -10.3863 -10.2131  -9.9538  -9.8412  -9.6844  -8.8586
    16.6814  17.9198  18.3643  19.6644  19.9311  22.8780  23.4049  24.6153

          k = 0.3509 0.6077 0.2079 (   489 PWs)   bands (ev):

   -40.3080 -40.2409 -10.2656 -10.2626 -10.0861 -10.0178  -9.3384  -8.9600
    17.4880  18.2531  18.7964  18.8106  19.7197  20.2380  24.0804  25.1335

          k = 0.3509-0.2026 0.0693 (   488 PWs)   bands (ev):

   -40.4251 -40.2018 -10.4751 -10.4227 -10.0022  -9.3837  -8.9138  -8.6717
    15.7074  16.1950  16.5366  20.3056  21.4710  22.7813  25.1532  25.9034

          k = 0.3509-0.2026 0.2079 (   490 PWs)   bands (ev):

   -40.3585 -40.2863 -10.3475 -10.1784  -9.9178  -9.2511  -9.2179  -9.0566
    16.7804  16.9768  17.1803  18.7557  22.0743  22.9201  23.5316  25.4383

          k =-0.1170 0.2026-0.0693 (   491 PWs)   bands (ev):

   -40.4585 -40.3289 -10.6036  -9.5185  -9.4842  -9.0325  -8.9027  -8.7094
    14.4366  17.3630  18.7748  19.6885  20.6212  21.3886  23.0166  24.2199

          k = 0.1170-0.2026-0.0693 (   491 PWs)   bands (ev):

   -40.4585 -40.3289 -10.6036  -9.5185  -9.4843  -9.0325  -8.9027  -8.7095
    14.4366  17.3630  18.7749  19.6885  20.6211  21.3887  23.0165  24.2199

          k = 0.1170 0.2026-0.0693 (   491 PWs)   bands (ev):

   -40.4566 -40.3297 -10.5040  -9.6328  -9.4693  -8.9368  -8.9034  -8.8547
    14.4520  17.9841  19.5611  20.0724  20.2492  21.3150  22.1875  24.2336

          k =-0.1170 0.2026-0.2079 (   492 PWs)   bands (ev):

   -40.4331 -40.3733 -10.1931  -9.6606  -9.3741  -9.2395  -9.0036  -8.8516
    15.4941  16.8254  18.9004  20.1169  20.2095  21.0649  23.8318  23.9822

          k = 0.1170-0.2026-0.2079 (   492 PWs)   bands (ev):

   -40.4331 -40.3733 -10.1930  -9.6606  -9.3742  -9.2394  -9.0036  -8.8516
    15.4941  16.8254  18.9005  20.1169  20.2096  21.0648  23.8314  23.9825

          k = 0.1170 0.2026-0.2079 (   492 PWs)   bands (ev):

   -40.4276 -40.3773 -10.3192  -9.9170  -9.2920  -8.9454  -8.9204  -8.9099
    15.4117  17.1454  18.9789  19.2840  19.7582  20.3687  24.0790  24.2883

          k =-0.1170 0.4727-0.0693 (   489 PWs)   bands (ev):

   -40.3178 -40.2621 -10.5444 -10.4398  -9.8007  -9.4123  -9.2465  -9.1068
    17.0418  17.3155  18.5762  18.8883  20.4642  20.7423  23.1850  25.7258

          k = 0.1170-0.4727-0.0693 (   489 PWs)   bands (ev):

   -40.3178 -40.2621 -10.5444 -10.4398  -9.8008  -9.4123  -9.2465  -9.1068
    17.0417  17.3156  18.5763  18.8881  20.4642  20.7424  23.1849  25.7258

          k =-0.3509 0.3376 0.0693 (   489 PWs)   bands (ev):

   -40.3773 -40.2034 -10.5858 -10.3107 -10.1040  -9.5746  -9.1750  -8.6946
    16.0311  16.4512  16.9957  20.3435  20.7675  23.3337  24.8635  25.2372

          k = 0.3509-0.3376 0.0693 (   489 PWs)   bands (ev):

   -40.3773 -40.2034 -10.5858 -10.3107 -10.1040  -9.5746  -9.1751  -8.6946
    16.0311  16.4512  16.9957  20.3435  20.7675  23.3338  24.8636  25.2372

          k = 0.3509 0.3376-0.0693 (   489 PWs)   bands (ev):

   -40.2905 -40.2885 -10.5130 -10.5116  -9.5743  -9.4338  -9.3263  -9.2111
    17.0435  17.4244  18.4627  19.2763  20.2834  21.3774  22.7995  25.6329

          k =-0.1170 0.4727-0.2079 (   489 PWs)   bands (ev):

   -40.2984 -40.2870 -10.7241 -10.6473  -9.5196  -9.4823  -9.1238  -8.9696
    16.1515  16.2713  18.3072  18.8033  21.4924  22.2644  24.0298  25.1462

          k = 0.1170-0.4727-0.2079 (   489 PWs)   bands (ev):

   -40.2984 -40.2871 -10.7241 -10.6473  -9.5197  -9.4822  -9.1238  -8.9696
    16.1515  16.2712  18.3073  18.8033  21.4924  22.2644  24.0298  25.1462

          k =-0.3509 0.3376 0.2079 (   489 PWs)   bands (ev):

   -40.3182 -40.2713 -10.4509 -10.2668  -9.9605  -9.5037  -9.3475  -8.9806
    17.0296  17.4828  17.5960  18.7501  20.5074  21.9081  24.2919  25.2718

          k = 0.3509-0.3376 0.2079 (   489 PWs)   bands (ev):

   -40.3182 -40.2713 -10.4509 -10.2668  -9.9606  -9.5036  -9.3477  -8.9805
    17.0296  17.4828  17.5960  18.7501  20.5073  21.9082  24.2920  25.2719

          k = 0.3509 0.3376-0.2079 (   489 PWs)   bands (ev):

   -40.3040 -40.2808 -10.7457 -10.7374  -9.4536  -9.3924  -9.0872  -9.0431
    16.1694  16.3487  18.0797  18.4442  21.4464  22.3438  24.4956  25.3828

          k =-0.1170-0.3376-0.0693 (   488 PWs)   bands (ev):

   -40.3528 -40.3017 -10.3512 -10.0902  -9.8654  -9.1710  -9.1391  -9.0475
    16.1351  18.2252  19.0043  19.8102  20.3275  20.4793  22.8883  23.4199

          k = 0.1170 0.3376-0.0693 (   488 PWs)   bands (ev):

   -40.3528 -40.3016 -10.3512 -10.0901  -9.8655  -9.1711  -9.1391  -9.0475
    16.1351  18.2252  19.0042  19.8103  20.3276  20.4792  22.8883  23.4199

          k = 0.3509-0.0675 0.0693 (   488 PWs)   bands (ev):

   -40.3999 -40.2562 -10.4354 -10.1615  -9.8362  -9.3708  -9.0525  -8.7074
    15.9233  17.0332  17.4913  19.5521  20.9492  21.8880  23.1875  25.4174

          k =-0.3509 0.0675 0.0693 (   488 PWs)   bands (ev):

   -40.3999 -40.2562 -10.4354 -10.1615  -9.8362  -9.3708  -9.0526  -8.7073
    15.9233  17.0332  17.4913  19.5521  20.9491  21.8881  23.1876  25.4175

          k =-0.3509-0.0675-0.0693 (   488 PWs)   bands (ev):

   -40.3827 -40.2721 -10.3822 -10.0520  -9.9793  -9.2024  -9.1559  -8.8445
    16.1498  17.7930  19.0203  19.3487  19.4751  20.2072  24.0814  24.6437

          k =-0.1170-0.3376-0.2079 (   490 PWs)   bands (ev):

   -40.3353 -40.3304 -10.5530 -10.4062  -9.3602  -9.1794  -9.1185  -8.9770
    16.1621  17.0635  18.5311  18.8523  20.2790  20.3642  24.7024  25.7745

          k = 0.1170 0.3376-0.2079 (   490 PWs)   bands (ev):

   -40.3354 -40.3303 -10.5530 -10.4062  -9.3602  -9.1794  -9.1185  -8.9770
    16.1621  17.0634  18.5310  18.8523  20.2790  20.3642  24.7024  25.7745

          k = 0.3509-0.0675 0.2079 (   490 PWs)   bands (ev):

   -40.3545 -40.3144 -10.1545 -10.0925  -9.7857  -9.4129  -9.2347  -8.9532
    16.8288  17.2382  18.1092  18.9510  20.8739  21.8980  23.3718  23.9310

          k =-0.3509 0.0675 0.2079 (   490 PWs)   bands (ev):

   -40.3545 -40.3144 -10.1545 -10.0926  -9.7857  -9.4128  -9.2348  -8.9532
    16.8288  17.2382  18.1092  18.9509  20.8737  21.8981  23.3720  23.9310

          k =-0.3509-0.0675-0.2079 (   490 PWs)   bands (ev):

   -40.3460 -40.3205 -10.4103 -10.2213  -9.5818  -9.3821  -9.1112  -8.9052
    16.2147  16.7959  19.1226  19.6010  20.2883  20.6388  23.4610  24.9988

          k =-0.1170-0.0675-0.0693 (   503 PWs)   bands (ev):

   -40.5687 -40.3739 -10.7186  -9.2530  -9.0166  -8.8452  -8.7548  -8.6944
    13.2358  16.4757  19.9964  20.4457  21.0038  22.1074  22.9336  23.1285

          k = 0.1170 0.0675-0.0693 (   503 PWs)   bands (ev):

   -40.5687 -40.3739 -10.7186  -9.2530  -9.0166  -8.8452  -8.7548  -8.6944
    13.2358  16.4757  19.9962  20.4457  21.0039  22.1074  22.9337  23.1285

          k =-0.1170-0.0675-0.2079 (   495 PWs)   bands (ev):

   -40.4906 -40.4163 -10.2497  -9.5410  -9.0880  -8.9084  -8.7837  -8.7733
    14.4743  15.9927  19.6644  19.8210  21.0859  21.4311  22.8246  22.9523

          k = 0.1170 0.0675-0.2079 (   495 PWs)   bands (ev):

   -40.4906 -40.4163 -10.2498  -9.5410  -9.0881  -8.9084  -8.7837  -8.7733
    14.4743  15.9927  19.6639  19.8214  21.0859  21.4311  22.8246  22.9523

          k =-0.3509 0.6077-0.0693 (   487 PWs)   bands (ev):

   -40.2861 -40.2437 -10.4189 -10.2709  -9.8467  -9.7180  -9.5804  -9.1536
    17.7953  18.2105  18.8122  19.0006  20.3823  20.9761  22.2309  25.9384

          k = 0.3509-0.6077-0.0693 (   487 PWs)   bands (ev):

   -40.2861 -40.2437 -10.4189 -10.2709  -9.8468  -9.7179  -9.5804  -9.1536
    17.7953  18.2105  18.8123  19.0005  20.3823  20.9761  22.2308  25.9384

          k = 0.3509 0.6077-0.0693 (   487 PWs)   bands (ev):

   -40.3125 -40.2188 -10.3863 -10.2131  -9.9538  -9.8413  -9.6843  -8.8586
    16.6814  17.9198  18.3643  19.6644  19.9311  22.8779  23.4049  24.6152

          k =-0.3509 0.6077-0.2079 (   489 PWs)   bands (ev):

   -40.3026 -40.2454 -10.6013 -10.5097  -9.8322  -9.7209  -9.2218  -9.0245
    17.1417  17.2563  18.5462  18.6960  20.8806  21.3348  23.2860  24.8838

          k = 0.3509-0.6077-0.2079 (   489 PWs)   bands (ev):

   -40.3025 -40.2454 -10.6013 -10.5097  -9.8322  -9.7209  -9.2217  -9.0245
    17.1417  17.2563  18.5462  18.6960  20.8805  21.3348  23.2860  24.8838

          k = 0.3509 0.6077-0.2079 (   489 PWs)   bands (ev):

   -40.3079 -40.2409 -10.2656 -10.2625 -10.0861 -10.0179  -9.3384  -8.9600
    17.4880  18.2530  18.7964  18.8108  19.7198  20.2378  24.0803  25.1336

          k =-0.3509-0.2026-0.0693 (   488 PWs)   bands (ev):

   -40.3486 -40.2768 -10.4885 -10.3295  -9.8821  -9.2027  -9.0782  -9.0137
    16.1879  17.2385  18.7852  18.9249  20.4035  21.2009  24.4971  24.5510

          k = 0.3509 0.2026-0.0693 (   488 PWs)   bands (ev):

   -40.3486 -40.2768 -10.4885 -10.3295  -9.8821  -9.2027  -9.0781  -9.0137
    16.1879  17.2385  18.7845  18.9256  20.4035  21.2009  24.4964  24.5517

          k =-0.3509-0.2026-0.2079 (   490 PWs)   bands (ev):

   -40.3294 -40.3099 -10.6815 -10.5788  -9.4560  -9.2856  -9.0127  -8.9049
    15.7475  16.1853  18.3088  18.3694  21.9896  22.1724  24.9877  25.3377

          k = 0.3509 0.2026-0.2079 (   490 PWs)   bands (ev):

   -40.3294 -40.3099 -10.6815 -10.5788  -9.4560  -9.2857  -9.0127  -8.9049
    15.7475  16.1853  18.3084  18.3698  21.9897  22.1723  24.9876  25.3378

     the Fermi energy is    20.0058 ev

!    total energy              =    -225.23245284 Ry
     estimated scf accuracy    <          6.4E-09 Ry
     smearing contrib. (-TS)   =      -0.00827460 Ry
     internal energy E=F+TS    =    -225.22417824 Ry

     The total energy is F=E-TS. E is the sum of the following terms:
     one-electron contribution =     -17.46100911 Ry
     hartree contribution      =      22.42864418 Ry
     xc contribution           =     -57.62588287 Ry
     ewald contribution        =    -172.56593045 Ry

     convergence has been achieved in   5 iterations

     Forces acting on atoms (cartesian axes, Ry/au):

     atom    1 type  1   force =    -0.00015846   -0.00027446   -0.00107053
     atom    2 type  1   force =     0.00015846    0.00027446    0.00107053

     Total force =     0.001579     Total SCF correction =     0.000207
     SCF correction compared to forces is large: reduce conv_thr to get better values


     Computing stress (Cartesian axis) and pressure

          total   stress  (Ry/bohr**3)                   (kbar)     P=       24.02
   0.00004015   0.00027144   0.00000002            5.91       39.93        0.00
   0.00027144   0.00035358   0.00000004           39.93       52.01        0.01
   0.00000002   0.00000004   0.00009619            0.00        0.01       14.15

     Energy error            =      5.5E-06 Ry
     Gradient error          =      1.1E-03 Ry/Bohr
     Cell gradient error     =      5.2E+01 kbar

     number of scf cycles    =  12
     number of bfgs steps    =  11

     enthalpy           old  =    -225.2324583521 Ry
     enthalpy           new  =    -225.2324528392 Ry

     CASE: enthalpy          _new > enthalpy          _old


 %%%%%%%%%%%%%%%%%%%%%%%%%%%%%%%%%%%%%%%%%%%%%%%%%%%%%%%%%%%%%%%%%%%%%%%%%%%%%%
     Error in routine bfgs (1):
     dE0s is positive which should never happen
 %%%%%%%%%%%%%%%%%%%%%%%%%%%%%%%%%%%%%%%%%%%%%%%%%%%%%%%%%%%%%%%%%%%%%%%%%%%%%%

     stopping ...
