
     Program PWSCF v.7.0 starts on 17Mar2022 at 20: 0:30 

     This program is part of the open-source Quantum ESPRESSO suite
     for quantum simulation of materials; please cite
         "P. Giannozzi et al., J. Phys.:Condens. Matter 21 395502 (2009);
         "P. Giannozzi et al., J. Phys.:Condens. Matter 29 465901 (2017);
         "P. Giannozzi et al., J. Chem. Phys. 152 154105 (2020);
          URL http://www.quantum-espresso.org", 
     in publications or presentations arising from this work. More details at
     http://www.quantum-espresso.org/quote

     Parallel version (MPI), running on     1 processors

     MPI processes distributed on     1 nodes
     0 MiB available memory on the printing compute node when the environment starts

     Reading input from pw.pt.relax.in

     Current dimensions of program PWSCF are:
     Max number of different atomic species (ntypx) = 10
     Max number of k-points (npk) =  40000
     Max angular momentum in pseudopotentials (lmaxx) =  4
     Found identity + ( -0.5000  0.0000  0.0000) symmetry
     This is a supercell, fractional translations are disabled
     Message from routine setup:
     using ibrav=0 with symmetry is DISCOURAGED, use correct ibrav instead

     Subspace diagonalization in iterative solution of the eigenvalue problem:
     a serial algorithm will be used


     G-vector sticks info
     --------------------
     sticks:   dense  smooth     PW     G-vecs:    dense   smooth      PW
     Sum       13003    5197   1393              5311879  1343883  184387

     Using Slab Decomposition



     bravais-lattice index     =            0
     lattice parameter (alat)  =       5.5437  a.u.
     unit-cell volume          =  111216.7565 (a.u.)^3
     number of atoms/cell      =           12
     number of atomic types    =            1
     number of electrons       =       192.00
     number of Kohn-Sham states=          115
     kinetic-energy cutoff     =      20.0000  Ry
     charge density cutoff     =     200.0000  Ry
     scf convergence threshold =      1.0E-08
     mixing beta               =       0.7000
     number of iterations used =            8  plain     mixing
     energy convergence thresh.=      1.0E-04
     force convergence thresh. =      1.0E-03
     Exchange-correlation=  SLA  PW   PBX  PBC
                           (   1   4   3   4   0   0   0)
     nstep                     =           50


     celldm(1)=   5.543717  celldm(2)=   0.000000  celldm(3)=   0.000000
     celldm(4)=   0.000000  celldm(5)=   0.000000  celldm(6)=   0.000000

     crystal axes: (cart. coord. in units of alat)
               a(1) = (   5.543717   0.000000   0.000000 )  
               a(2) = (   2.771859   4.801000   0.000000 )  
               a(3) = (   0.000000   0.000000  24.526426 )  

     reciprocal axes: (cart. coord. in units 2 pi/alat)
               b(1) = (  0.180384 -0.104145  0.000000 )  
               b(2) = (  0.000000  0.208290  0.000000 )  
               b(3) = (  0.000000  0.000000  0.040772 )  


     PseudoPot. # 1 for Pt read from file:
     /Users/vinhtran/Downloads/SSSP_1.1.2_PBE_efficiency/pt_pbe_v1.4.uspp.F.UPF
     MD5 check sum: f09d6de1a584b5a045c4fc126da2d0c4
     Pseudo is Ultrasoft + core correction, Zval = 16.0
     Generated by new atomic code, or converted to UPF format
     Using radial grid of  985 points,  6 beta functions with: 
                l(1) =   0
                l(2) =   0
                l(3) =   1
                l(4) =   1
                l(5) =   2
                l(6) =   2
     Q(r) pseudized with  8 coefficients,  rinner =    1.300   1.300   1.300
                                                       1.300   1.300

     atomic species   valence    mass     pseudopotential
        Pt            16.00   195.08400     Pt( 1.00)

      6 Sym. Ops. (no inversion) found



   Cartesian axes

     site n.     atom                  positions (alat units)
         1           Pt  tau(   1) = (   1.3859293   0.8001666  10.0000000  )
         2           Pt  tau(   2) = (   4.1577879   0.8001666  10.0000000  )
         3           Pt  tau(   3) = (   2.7718586   3.2006666  10.0000000  )
         4           Pt  tau(   4) = (   5.5437172   3.2006666  10.0000000  )
         5           Pt  tau(   5) = (   5.5437172   1.6003333  12.2632131  )
         6           Pt  tau(   6) = (   2.7718586   1.6003333  12.2632131  )
         7           Pt  tau(   7) = (   6.9296465   4.0008332  12.2632131  )
         8           Pt  tau(   8) = (   4.1577879   4.0008332  12.2632131  )
         9           Pt  tau(   9) = (   0.0000000   0.0000000  14.5264261  )
        10           Pt  tau(  10) = (   2.7718586   0.0000000  14.5264261  )
        11           Pt  tau(  11) = (   1.3859293   2.4004999  14.5264261  )
        12           Pt  tau(  12) = (   4.1577879   2.4004999  14.5264261  )

     number of k points=    12  Marzari-Vanderbilt smearing, width (Ry)=  0.0100
                       cart. coord. in units 2pi/alat
        k(    1) = (   0.0000000   0.0000000   0.0000000), wk =   0.0246914
        k(    2) = (   0.0000000   0.0231433   0.0000000), wk =   0.1481481
        k(    3) = (   0.0000000   0.0462867   0.0000000), wk =   0.1481481
        k(    4) = (   0.0000000   0.0694300   0.0000000), wk =   0.1481481
        k(    5) = (   0.0000000   0.0925733   0.0000000), wk =   0.1481481
        k(    6) = (   0.0200427   0.0347150   0.0000000), wk =   0.1481481
        k(    7) = (   0.0200427   0.0578583   0.0000000), wk =   0.2962963
        k(    8) = (   0.0200427   0.0810016   0.0000000), wk =   0.2962963
        k(    9) = (   0.0200427  -0.1041450   0.0000000), wk =   0.1481481
        k(   10) = (   0.0400854   0.0694300   0.0000000), wk =   0.1481481
        k(   11) = (   0.0400854  -0.1157166   0.0000000), wk =   0.2962963
        k(   12) = (   0.0601281  -0.1041450   0.0000000), wk =   0.0493827

     Dense  grid:  5311879 G-vectors     FFT dimensions: ( 144, 144, 625)

     Smooth grid:  1343883 G-vectors     FFT dimensions: (  90,  90, 400)

     Estimated max dynamical RAM per process >      24.73 GB

     Initial potential from superposition of free atoms

     starting charge     185.9999, renormalised to     192.0000

     negative rho (up, down):  2.289E+00 0.000E+00
     Starting wfcs are  144 randomized atomic wfcs

     total cpu time spent up to now is      177.4 secs

     Self-consistent Calculation

     iteration #  1     ecut=    20.00 Ry     beta= 0.70
