
     Program BANDS v.7.0 starts on 22Mar2022 at 16:36:20 

     This program is part of the open-source Quantum ESPRESSO suite
     for quantum simulation of materials; please cite
         "P. Giannozzi et al., J. Phys.:Condens. Matter 21 395502 (2009);
         "P. Giannozzi et al., J. Phys.:Condens. Matter 29 465901 (2017);
         "P. Giannozzi et al., J. Chem. Phys. 152 154105 (2020);
          URL http://www.quantum-espresso.org", 
     in publications or presentations arising from this work. More details at
     http://www.quantum-espresso.org/quote

     Parallel version (MPI), running on     1 processors

     MPI processes distributed on     1 nodes
     0 MiB available memory on the printing compute node when the environment starts


     Reading xml data from directory:

     ./temp/gp.save/
     file C.pbe-n-kjpaw_psl.1.0.0.UPF: wavefunction(s)  2S 2P renormalized

     IMPORTANT: XC functional enforced from input :
     Exchange-correlation= PBE
                           (   1   4   3   4   0   0   0)
     Any further DFT definition will be discarded
     Please, verify this is what you really want


     G-vector sticks info
     --------------------
     sticks:   dense  smooth     PW     G-vecs:    dense   smooth      PW
     Sum         301     121     37                12531     3147     647

     Using Slab Decomposition


     Check: negative core charge=   -0.000041

     negative rho (up, down):  5.331E-06 0.000E+00
     Reading collected, re-writing distributed wavefunctions
     high-symmetry point:  0.0000 0.0000 0.0000   x coordinate   0.0000
     high-symmetry point:  0.5000 0.2887 0.0000   x coordinate   0.5774
     high-symmetry point:  0.3333 0.5774 0.0000   x coordinate   0.9107
     high-symmetry point:  0.0000 0.0000 0.0000   x coordinate   1.5774
     high-symmetry point:  0.0000 0.0000 0.1667   x coordinate   1.7440
     high-symmetry point:  0.5000 0.2887 0.1667   x coordinate   2.3214
     high-symmetry point:  0.3333 0.5774 0.1667   x coordinate   2.6547
     high-symmetry point:  0.0000 0.0000 0.1667   x coordinate   3.3214
     high-symmetry point:  0.5000 0.2887 0.1667   x coordinate   3.3214
     high-symmetry point:  0.5000 0.2887 0.0000   x coordinate   3.4880
     high-symmetry point:  0.3333 0.5774 0.1667   x coordinate   3.4880
     high-symmetry point:  0.3333 0.5774 0.0000   x coordinate   3.6547

     Plottable bands (eV) written to file bands.out.gnu
     Bands written to file bands.out

 **************************************************************************

                    xk=(   0.00000,   0.00000,   0.00000  )

     point group D_6h(6/mmm)
     there are 12 classes
     the character table:

       E     2C6   2C3   C2    3C2'  3C2'' i     2S3   2S6   s_h   3s_d  3s_v 
A_1g   1.00  1.00  1.00  1.00  1.00  1.00  1.00  1.00  1.00  1.00  1.00  1.00
A_2g   1.00  1.00  1.00  1.00 -1.00 -1.00  1.00  1.00  1.00  1.00 -1.00 -1.00
B_1g   1.00 -1.00  1.00 -1.00  1.00 -1.00  1.00 -1.00  1.00 -1.00  1.00 -1.00
B_2g   1.00 -1.00  1.00 -1.00 -1.00  1.00  1.00 -1.00  1.00 -1.00 -1.00  1.00
E_1g   2.00  1.00 -1.00 -2.00  0.00  0.00  2.00  1.00 -1.00 -2.00  0.00  0.00
E_2g   2.00 -1.00 -1.00  2.00  0.00  0.00  2.00 -1.00 -1.00  2.00  0.00  0.00
A_1u   1.00  1.00  1.00  1.00  1.00  1.00 -1.00 -1.00 -1.00 -1.00 -1.00 -1.00
A_2u   1.00  1.00  1.00  1.00 -1.00 -1.00 -1.00 -1.00 -1.00 -1.00  1.00  1.00
B_1u   1.00 -1.00  1.00 -1.00  1.00 -1.00 -1.00  1.00 -1.00  1.00 -1.00  1.00
B_2u   1.00 -1.00  1.00 -1.00 -1.00  1.00 -1.00  1.00 -1.00  1.00  1.00 -1.00
E_1u   2.00  1.00 -1.00 -2.00  0.00  0.00 -2.00 -1.00  1.00  2.00  0.00  0.00
E_2u   2.00 -1.00 -1.00  2.00  0.00  0.00 -2.00  1.00  1.00 -2.00  0.00  0.00

     the symmetry operations in each class and the name of the first element:

     E        1
                                                                 
     2C6      5    6
                                                                 
     2C3      7    8
                                                                 
     C2       2
                                                                 
     3C2'     4   12   11
                                                                 
     3C2''    3    9   10
                                                                 
     i       13
                                                                 
     2S3     17   18
                                                                 
     2S6     19   20
                                                                 
     s_h     14
                                                                 
     3s_d    16   24   23
                                                                 
     3s_v    15   21   22
                                                                 

     Band symmetry, D_6h(6/mmm) point group:

     e(  1 -  1) =    -18.89757  eV     1   --> A_1g           
     e(  2 -  2) =     -6.66098  eV     1   --> A_2u           
     e(  3 -  4) =     -1.99421  eV     2   --> E_2g           

 **************************************************************************

 **************************************************************************

                    xk=(   0.00877,   0.00506,   0.00000  )

     point group C_2v (mm2) 
     there are  4 classes
     the character table:

       E     C2    s_v   s_v' 
A_1    1.00  1.00  1.00  1.00
A_2    1.00  1.00 -1.00 -1.00
B_1    1.00 -1.00  1.00 -1.00
B_2    1.00 -1.00 -1.00  1.00

     the symmetry operations in each class and the name of the first element:

     E        1
                                                                 
     C2       2
                                                                 
     s_v      3
                                                                 
     s_v'     4
                                                                 

     Band symmetry, C_2v (mm2)  point group:

     e(  1 -  1) =    -18.89570  eV     1   --> A_1  D_1  S_1  
     e(  2 -  2) =     -6.65877  eV     1   --> B_2  D_4  S_4  
     e(  3 -  3) =     -2.00208  eV     1   --> A_1  D_1  S_1  
     e(  4 -  4) =     -1.99818  eV     1   --> B_1  D_3  S_3  

 **************************************************************************

 **************************************************************************

                    xk=(   0.01754,   0.01013,   0.00000  )

     Band symmetry, C_2v (mm2)  point group:

     e(  1 -  1) =    -18.89010  eV     1   --> A_1  D_1  S_1  
     e(  2 -  2) =     -6.65215  eV     1   --> B_2  D_4  S_4  
     e(  3 -  3) =     -2.02562  eV     1   --> A_1  D_1  S_1  
     e(  4 -  4) =     -2.01005  eV     1   --> B_1  D_3  S_3  

 **************************************************************************

 **************************************************************************

                    xk=(   0.02632,   0.01519,   0.00000  )

     Band symmetry, C_2v (mm2)  point group:

     e(  1 -  1) =    -18.88106  eV     1   --> A_1  D_1  S_1  
     e(  2 -  2) =     -6.64400  eV     1   --> B_2  D_4  S_4  
     e(  3 -  3) =     -2.14713  eV     1   --> A_1  D_1  S_1  
     e(  4 -  4) =     -2.06430  eV     1   --> B_1  D_3  S_3  

 **************************************************************************

 **************************************************************************

                    xk=(   0.03509,   0.02026,   0.00000  )

     Band symmetry, C_2v (mm2)  point group:

     e(  1 -  1) =    -18.86839  eV     1   --> A_1  D_1  S_1  
     e(  2 -  2) =     -6.65221  eV     1   --> B_2  D_4  S_4  
     e(  3 -  3) =     -2.20270  eV     1   --> A_1  D_1  S_1  
     e(  4 -  4) =     -2.09326  eV     1   --> B_1  D_3  S_3  

 **************************************************************************

 **************************************************************************

                    xk=(   0.04386,   0.02532,   0.00000  )

     Band symmetry, C_2v (mm2)  point group:

     e(  1 -  1) =    -18.85167  eV     1   --> A_1  D_1  S_1  
     e(  2 -  2) =     -6.63073  eV     1   --> B_2  D_4  S_4  
     e(  3 -  3) =     -2.25645  eV     1   --> A_1  D_1  S_1  
     e(  4 -  4) =     -2.12913  eV     1   --> B_1  D_3  S_3  

 **************************************************************************

 **************************************************************************

                    xk=(   0.05263,   0.03039,   0.00000  )

     Band symmetry, C_2v (mm2)  point group:

     e(  1 -  1) =    -18.83125  eV     1   --> A_1  D_1  S_1  
     e(  2 -  2) =     -6.60688  eV     1   --> B_2  D_4  S_4  
     e(  3 -  3) =     -2.34060  eV     1   --> A_1  D_1  S_1  
     e(  4 -  4) =     -2.17199  eV     1   --> B_1  D_3  S_3  

 **************************************************************************

 **************************************************************************

                    xk=(   0.06140,   0.03545,   0.00000  )

     Band symmetry, C_2v (mm2)  point group:

     e(  1 -  1) =    -18.80711  eV     1   --> A_1  D_1  S_1  
     e(  2 -  2) =     -6.57864  eV     1   --> B_2  D_4  S_4  
     e(  3 -  3) =     -2.43839  eV     1   --> A_1  D_1  S_1  
     e(  4 -  4) =     -2.22146  eV     1   --> B_1  D_3  S_3  

 **************************************************************************

 **************************************************************************

                    xk=(   0.07018,   0.04052,   0.00000  )

     Band symmetry, C_2v (mm2)  point group:

     e(  1 -  1) =    -18.77925  eV     1   --> A_1  D_1  S_1  
     e(  2 -  2) =     -6.54602  eV     1   --> B_2  D_4  S_4  
     e(  3 -  3) =     -2.54918  eV     1   --> A_1  D_1  S_1  
     e(  4 -  4) =     -2.27714  eV     1   --> B_1  D_3  S_3  

 **************************************************************************

 **************************************************************************

                    xk=(   0.07895,   0.04558,   0.00000  )

     Band symmetry, C_2v (mm2)  point group:

     e(  1 -  1) =    -18.74763  eV     1   --> A_1  D_1  S_1  
     e(  2 -  2) =     -6.50496  eV     1   --> B_2  D_4  S_4  
     e(  3 -  3) =     -2.66483  eV     1   --> A_1  D_1  S_1  
     e(  4 -  4) =     -2.31518  eV     1   --> B_1  D_3  S_3  

 **************************************************************************

 **************************************************************************

                    xk=(   0.08772,   0.05064,   0.00000  )

     Band symmetry, C_2v (mm2)  point group:

     e(  1 -  1) =    -18.71235  eV     1   --> A_1  D_1  S_1  
     e(  2 -  2) =     -6.46363  eV     1   --> B_2  D_4  S_4  
     e(  3 -  3) =     -2.79973  eV     1   --> A_1  D_1  S_1  
     e(  4 -  4) =     -2.38204  eV     1   --> B_1  D_3  S_3  

 **************************************************************************

 **************************************************************************

                    xk=(   0.09649,   0.05571,   0.00000  )

     Band symmetry, C_2v (mm2)  point group:

     e(  1 -  1) =    -18.67335  eV     1   --> A_1  D_1  S_1  
     e(  2 -  2) =     -6.41706  eV     1   --> B_2  D_4  S_4  
     e(  3 -  3) =     -2.90477  eV     1   --> A_1  D_1  S_1  
     e(  4 -  4) =     -2.44930  eV     1   --> B_1  D_3  S_3  

 **************************************************************************

 **************************************************************************

                    xk=(   0.10526,   0.06077,   0.00000  )

     Band symmetry, C_2v (mm2)  point group:

     e(  1 -  1) =    -18.63064  eV     1   --> A_1  D_1  S_1  
     e(  2 -  2) =     -6.36708  eV     1   --> B_2  D_4  S_4  
     e(  3 -  3) =     -3.06330  eV     1   --> A_1  D_1  S_1  
     e(  4 -  4) =     -2.52538  eV     1   --> B_1  D_3  S_3  

 **************************************************************************

 **************************************************************************

                    xk=(   0.11404,   0.06584,   0.00000  )

     Band symmetry, C_2v (mm2)  point group:

     e(  1 -  1) =    -18.58422  eV     1   --> A_1  D_1  S_1  
     e(  2 -  2) =     -6.31277  eV     1   --> B_2  D_4  S_4  
     e(  3 -  3) =     -3.23116  eV     1   --> A_1  D_1  S_1  
     e(  4 -  4) =     -2.60528  eV     1   --> B_1  D_3  S_3  

 **************************************************************************

 **************************************************************************

                    xk=(   0.12281,   0.07090,   0.00000  )

     Band symmetry, C_2v (mm2)  point group:

     e(  1 -  1) =    -18.53422  eV     1   --> A_1  D_1  S_1  
     e(  2 -  2) =     -6.25473  eV     1   --> B_2  D_4  S_4  
     e(  3 -  3) =     -3.37217  eV     1   --> A_1  D_1  S_1  
     e(  4 -  4) =     -2.73539  eV     1   --> B_1  D_3  S_3  

 **************************************************************************

 **************************************************************************

                    xk=(   0.13158,   0.07597,   0.00000  )

     Band symmetry, C_2v (mm2)  point group:

     e(  1 -  1) =    -18.48110  eV     1   --> A_1  D_1  S_1  
     e(  2 -  2) =     -6.19186  eV     1   --> B_2  D_4  S_4  
     e(  3 -  3) =     -3.55910  eV     1   --> A_1  D_1  S_1  
     e(  4 -  4) =     -2.82298  eV     1   --> B_1  D_3  S_3  

 **************************************************************************

 **************************************************************************

                    xk=(   0.14035,   0.08103,   0.00000  )

     Band symmetry, C_2v (mm2)  point group:

     e(  1 -  1) =    -18.42366  eV     1   --> A_1  D_1  S_1  
     e(  2 -  2) =     -6.12472  eV     1   --> B_2  D_4  S_4  
     e(  3 -  3) =     -3.75158  eV     1   --> A_1  D_1  S_1  
     e(  4 -  4) =     -2.91285  eV     1   --> B_1  D_3  S_3  

 **************************************************************************

 **************************************************************************

                    xk=(   0.14912,   0.08610,   0.00000  )

     Band symmetry, C_2v (mm2)  point group:

     e(  1 -  1) =    -18.36428  eV     1   --> A_1  D_1  S_1  
     e(  2 -  2) =     -6.05348  eV     1   --> B_2  D_4  S_4  
     e(  3 -  3) =     -3.95485  eV     1   --> A_1  D_1  S_1  
     e(  4 -  4) =     -3.00456  eV     1   --> B_1  D_3  S_3  

 **************************************************************************

 **************************************************************************

                    xk=(   0.15789,   0.09116,   0.00000  )

     Band symmetry, C_2v (mm2)  point group:

     e(  1 -  1) =    -18.29964  eV     1   --> A_1  D_1  S_1  
     e(  2 -  2) =     -5.97788  eV     1   --> B_2  D_4  S_4  
     e(  3 -  3) =     -4.16012  eV     1   --> A_1  D_1  S_1  
     e(  4 -  4) =     -3.09769  eV     1   --> B_1  D_3  S_3  

 **************************************************************************

 **************************************************************************

                    xk=(   0.16667,   0.09623,   0.00000  )

     Band symmetry, C_2v (mm2)  point group:

     e(  1 -  1) =    -18.23135  eV     1   --> A_1  D_1  S_1  
     e(  2 -  2) =     -5.89809  eV     1   --> B_2  D_4  S_4  
     e(  3 -  3) =     -4.37073  eV     1   --> A_1  D_1  S_1  
     e(  4 -  4) =     -3.19187  eV     1   --> B_1  D_3  S_3  

 **************************************************************************

 **************************************************************************

                    xk=(   0.17544,   0.10129,   0.00000  )

     Band symmetry, C_2v (mm2)  point group:

     e(  1 -  1) =    -18.15930  eV     1   --> A_1  D_1  S_1  
     e(  2 -  2) =     -5.81370  eV     1   --> B_2  D_4  S_4  
     e(  3 -  3) =     -4.55842  eV     1   --> A_1  D_1  S_1  
     e(  4 -  4) =     -3.28234  eV     1   --> B_1  D_3  S_3  

 **************************************************************************

 **************************************************************************

                    xk=(   0.18421,   0.10635,   0.00000  )

     Band symmetry, C_2v (mm2)  point group:

     e(  1 -  1) =    -18.08437  eV     1   --> A_1  D_1  S_1  
     e(  2 -  2) =     -5.72799  eV     1   --> B_2  D_4  S_4  
     e(  3 -  3) =     -4.81977  eV     1   --> A_1  D_1  S_1  
     e(  4 -  4) =     -3.38001  eV     1   --> B_1  D_3  S_3  

 **************************************************************************

 **************************************************************************

                    xk=(   0.19298,   0.11142,   0.00000  )

     Band symmetry, C_2v (mm2)  point group:

     e(  1 -  1) =    -18.00760  eV     1   --> A_1  D_1  S_1  
     e(  2 -  2) =     -5.63649  eV     1   --> B_2  D_4  S_4  
     e(  3 -  3) =     -5.04958  eV     1   --> A_1  D_1  S_1  
     e(  4 -  4) =     -3.47528  eV     1   --> B_1  D_3  S_3  

 **************************************************************************

 **************************************************************************

                    xk=(   0.20175,   0.11648,   0.00000  )

     Band symmetry, C_2v (mm2)  point group:

     e(  1 -  1) =    -17.92499  eV     1   --> A_1  D_1  S_1  
     e(  2 -  2) =     -5.54038  eV     1   --> B_2  D_4  S_4  
     e(  3 -  3) =     -5.27771  eV     1   --> A_1  D_1  S_1  
     e(  4 -  4) =     -3.57024  eV     1   --> B_1  D_3  S_3  

 **************************************************************************

 **************************************************************************

                    xk=(   0.21053,   0.12155,   0.00000  )

     Band symmetry, C_2v (mm2)  point group:

     e(  1 -  1) =    -17.83877  eV     1   --> A_1  D_1  S_1  
     e(  2 -  2) =     -5.50853  eV     1   --> A_1  D_1  S_1  
     e(  3 -  3) =     -5.44027  eV     1   --> B_2  D_4  S_4  
     e(  4 -  4) =     -3.66460  eV     1   --> B_1  D_3  S_3  

 **************************************************************************

 **************************************************************************

                    xk=(   0.21930,   0.12661,   0.00000  )

     Band symmetry, C_2v (mm2)  point group:

     e(  1 -  1) =    -17.74880  eV     1   --> A_1  D_1  S_1  
     e(  2 -  2) =     -5.70532  eV     1   --> A_1  D_1  S_1  
     e(  3 -  3) =     -5.33097  eV     1   --> B_2  D_4  S_4  
     e(  4 -  4) =     -3.74488  eV     1   --> B_1  D_3  S_3  

 **************************************************************************

 **************************************************************************

                    xk=(   0.22807,   0.13168,   0.00000  )

     Band symmetry, C_2v (mm2)  point group:

     e(  1 -  1) =    -17.65593  eV     1   --> A_1  D_1  S_1  
     e(  2 -  2) =     -5.92750  eV     1   --> A_1  D_1  S_1  
     e(  3 -  3) =     -5.22489  eV     1   --> B_2  D_4  S_4  
     e(  4 -  4) =     -3.86642  eV     1   --> B_1  D_3  S_3  

 **************************************************************************

 **************************************************************************

                    xk=(   0.23684,   0.13674,   0.00000  )

     Band symmetry, C_2v (mm2)  point group:

     e(  1 -  1) =    -17.55883  eV     1   --> A_1  D_1  S_1  
     e(  2 -  2) =     -6.15749  eV     1   --> A_1  D_1  S_1  
     e(  3 -  3) =     -5.11315  eV     1   --> B_2  D_4  S_4  
     e(  4 -  4) =     -3.95668  eV     1   --> B_1  D_3  S_3  

 **************************************************************************

 **************************************************************************

                    xk=(   0.24561,   0.14181,   0.00000  )

     Band symmetry, C_2v (mm2)  point group:

     e(  1 -  1) =    -17.45832  eV     1   --> A_1  D_1  S_1  
     e(  2 -  2) =     -6.39804  eV     1   --> A_1  D_1  S_1  
     e(  3 -  3) =     -4.99764  eV     1   --> B_2  D_4  S_4  
     e(  4 -  4) =     -4.04738  eV     1   --> B_1  D_3  S_3  

 **************************************************************************

 **************************************************************************

                    xk=(   0.25439,   0.14687,   0.00000  )

     Band symmetry, C_2v (mm2)  point group:

     e(  1 -  1) =    -17.35428  eV     1   --> A_1  D_1  S_1  
     e(  2 -  2) =     -6.63936  eV     1   --> A_1  D_1  S_1  
     e(  3 -  3) =     -4.87843  eV     1   --> B_2  D_4  S_4  
     e(  4 -  4) =     -4.13630  eV     1   --> B_1  D_3  S_3  

 **************************************************************************

 **************************************************************************

                    xk=(   0.26316,   0.15193,   0.00000  )

     Band symmetry, C_2v (mm2)  point group:

     e(  1 -  1) =    -17.24672  eV     1   --> A_1  D_1  S_1  
     e(  2 -  2) =     -6.88115  eV     1   --> A_1  D_1  S_1  
     e(  3 -  3) =     -4.75560  eV     1   --> B_2  D_4  S_4  
     e(  4 -  4) =     -4.22327  eV     1   --> B_1  D_3  S_3  

 **************************************************************************

 **************************************************************************

                    xk=(   0.27193,   0.15700,   0.00000  )

     Band symmetry, C_2v (mm2)  point group:

     e(  1 -  1) =    -17.13912  eV     1   --> A_1  D_1  S_1  
     e(  2 -  2) =     -7.09898  eV     1   --> A_1  D_1  S_1  
     e(  3 -  3) =     -4.63046  eV     1   --> B_2  D_4  S_4  
     e(  4 -  4) =     -4.29715  eV     1   --> B_1  D_3  S_3  

 **************************************************************************

 **************************************************************************

                    xk=(   0.28070,   0.16206,   0.00000  )

     Band symmetry, C_2v (mm2)  point group:

     e(  1 -  1) =    -17.02484  eV     1   --> A_1  D_1  S_1  
     e(  2 -  2) =     -7.34215  eV     1   --> A_1  D_1  S_1  
     e(  3 -  3) =     -4.50072  eV     1   --> B_2  D_4  S_4  
     e(  4 -  4) =     -4.38021  eV     1   --> B_1  D_3  S_3  

 **************************************************************************

 **************************************************************************

                    xk=(   0.28947,   0.16713,   0.00000  )

     Band symmetry, C_2v (mm2)  point group:

     e(  1 -  1) =    -16.90824  eV     1   --> A_1  D_1  S_1  
     e(  2 -  2) =     -7.55764  eV     1   --> A_1  D_1  S_1  
     e(  3 -  3) =     -4.46155  eV     1   --> B_1  D_3  S_3  
     e(  4 -  4) =     -4.36532  eV     1   --> B_2  D_4  S_4  

 **************************************************************************

 **************************************************************************

                    xk=(   0.29825,   0.17219,   0.00000  )

     Band symmetry, C_2v (mm2)  point group:

     e(  1 -  1) =    -16.78777  eV     1   --> A_1  D_1  S_1  
     e(  2 -  2) =     -7.80289  eV     1   --> A_1  D_1  S_1  
     e(  3 -  3) =     -4.53997  eV     1   --> B_1  D_3  S_3  
     e(  4 -  4) =     -4.23096  eV     1   --> B_2  D_4  S_4  

 **************************************************************************

 **************************************************************************

                    xk=(   0.30702,   0.17726,   0.00000  )

     Band symmetry, C_2v (mm2)  point group:

     e(  1 -  1) =    -16.66334  eV     1   --> A_1  D_1  S_1  
     e(  2 -  2) =     -8.04546  eV     1   --> A_1  D_1  S_1  
     e(  3 -  3) =     -4.61570  eV     1   --> B_1  D_3  S_3  
     e(  4 -  4) =     -4.09171  eV     1   --> B_2  D_4  S_4  

 **************************************************************************

 **************************************************************************

                    xk=(   0.31579,   0.18232,   0.00000  )

     Band symmetry, C_2v (mm2)  point group:

     e(  1 -  1) =    -16.53556  eV     1   --> A_1  D_1  S_1  
     e(  2 -  2) =     -8.28706  eV     1   --> A_1  D_1  S_1  
     e(  3 -  3) =     -4.68864  eV     1   --> B_1  D_3  S_3  
     e(  4 -  4) =     -3.94959  eV     1   --> B_2  D_4  S_4  

 **************************************************************************

 **************************************************************************

                    xk=(   0.32456,   0.18739,   0.00000  )

     Band symmetry, C_2v (mm2)  point group:

     e(  1 -  1) =    -16.40787  eV     1   --> A_1  D_1  S_1  
     e(  2 -  2) =     -8.52789  eV     1   --> A_1  D_1  S_1  
     e(  3 -  3) =     -4.77143  eV     1   --> B_1  D_3  S_3  
     e(  4 -  4) =     -3.80514  eV     1   --> B_2  D_4  S_4  

 **************************************************************************

 **************************************************************************

                    xk=(   0.33333,   0.19245,   0.00000  )

     Band symmetry, C_2v (mm2)  point group:

     e(  1 -  1) =    -16.27365  eV     1   --> A_1  D_1  S_1  
     e(  2 -  2) =     -8.76699  eV     1   --> A_1  D_1  S_1  
     e(  3 -  3) =     -4.83879  eV     1   --> B_1  D_3  S_3  
     e(  4 -  4) =     -3.65792  eV     1   --> B_2  D_4  S_4  

 **************************************************************************

 **************************************************************************

                    xk=(   0.34211,   0.19751,   0.00000  )

     Band symmetry, C_2v (mm2)  point group:

     e(  1 -  1) =    -16.13622  eV     1   --> A_1  D_1  S_1  
     e(  2 -  2) =     -9.00456  eV     1   --> A_1  D_1  S_1  
     e(  3 -  3) =     -4.90309  eV     1   --> B_1  D_3  S_3  
     e(  4 -  4) =     -3.50852  eV     1   --> B_2  D_4  S_4  

 **************************************************************************

 **************************************************************************

                    xk=(   0.35088,   0.20258,   0.00000  )

     Band symmetry, C_2v (mm2)  point group:

     e(  1 -  1) =    -15.99381  eV     1   --> A_1  D_1  S_1  
     e(  2 -  2) =     -9.23715  eV     1   --> A_1  D_1  S_1  
     e(  3 -  3) =     -4.96374  eV     1   --> B_1  D_3  S_3  
     e(  4 -  4) =     -3.33079  eV     1   --> B_2  D_4  S_4  

 **************************************************************************

 **************************************************************************

                    xk=(   0.35965,   0.20764,   0.00000  )

     Band symmetry, C_2v (mm2)  point group:

     e(  1 -  1) =    -15.84997  eV     1   --> A_1  D_1  S_1  
     e(  2 -  2) =     -9.45879  eV     1   --> A_1  D_1  S_1  
     e(  3 -  3) =     -4.99964  eV     1   --> B_1  D_3  S_3  
     e(  4 -  4) =     -3.16435  eV     1   --> B_2  D_4  S_4  

 **************************************************************************

 **************************************************************************

                    xk=(   0.36842,   0.21271,   0.00000  )

     Band symmetry, C_2v (mm2)  point group:

     e(  1 -  1) =    -15.70321  eV     1   --> A_1  D_1  S_1  
     e(  2 -  2) =     -9.69092  eV     1   --> A_1  D_1  S_1  
     e(  3 -  3) =     -5.05479  eV     1   --> B_1  D_3  S_3  
     e(  4 -  4) =     -3.01039  eV     1   --> B_2  D_4  S_4  

 **************************************************************************

 **************************************************************************

                    xk=(   0.37719,   0.21777,   0.00000  )

     Band symmetry, C_2v (mm2)  point group:

     e(  1 -  1) =    -15.55887  eV     1   --> A_1  D_1  S_1  
     e(  2 -  2) =     -9.92481  eV     1   --> A_1  D_1  S_1  
     e(  3 -  3) =     -5.10659  eV     1   --> B_1  D_3  S_3  
     e(  4 -  4) =     -2.85837  eV     1   --> B_2  D_4  S_4  

 **************************************************************************

 **************************************************************************

                    xk=(   0.38596,   0.22284,   0.00000  )

     Band symmetry, C_2v (mm2)  point group:

     e(  1 -  1) =    -15.40793  eV     1   --> A_1  D_1  S_1  
     e(  2 -  2) =    -10.16799  eV     1   --> A_1  D_1  S_1  
     e(  3 -  3) =     -5.15625  eV     1   --> B_1  D_3  S_3  
     e(  4 -  4) =     -2.70986  eV     1   --> B_2  D_4  S_4  

 **************************************************************************

 **************************************************************************

                    xk=(   0.39474,   0.22790,   0.00000  )

     Band symmetry, C_2v (mm2)  point group:

     e(  1 -  1) =    -15.25321  eV     1   --> A_1  D_1  S_1  
     e(  2 -  2) =    -10.39248  eV     1   --> A_1  D_1  S_1  
     e(  3 -  3) =     -5.20119  eV     1   --> B_1  D_3  S_3  
     e(  4 -  4) =     -2.55653  eV     1   --> B_2  D_4  S_4  

 **************************************************************************

 **************************************************************************

                    xk=(   0.40351,   0.23297,   0.00000  )

     Band symmetry, C_2v (mm2)  point group:

     e(  1 -  1) =    -15.09610  eV     1   --> A_1  D_1  S_1  
     e(  2 -  2) =    -10.61398  eV     1   --> A_1  D_1  S_1  
     e(  3 -  3) =     -5.24263  eV     1   --> B_1  D_3  S_3  
     e(  4 -  4) =     -2.40481  eV     1   --> B_2  D_4  S_4  

 **************************************************************************

 **************************************************************************

                    xk=(   0.41228,   0.23803,   0.00000  )

     Band symmetry, C_2v (mm2)  point group:

     e(  1 -  1) =    -14.93686  eV     1   --> A_1  D_1  S_1  
     e(  2 -  2) =    -10.83215  eV     1   --> A_1  D_1  S_1  
     e(  3 -  3) =     -5.28053  eV     1   --> B_1  D_3  S_3  
     e(  4 -  4) =     -2.25573  eV     1   --> B_2  D_4  S_4  

 **************************************************************************

 **************************************************************************

                    xk=(   0.42105,   0.24309,   0.00000  )

     Band symmetry, C_2v (mm2)  point group:

     e(  1 -  1) =    -14.77589  eV     1   --> A_1  D_1  S_1  
     e(  2 -  2) =    -11.04656  eV     1   --> A_1  D_1  S_1  
     e(  3 -  3) =     -5.31486  eV     1   --> B_1  D_3  S_3  
     e(  4 -  4) =     -2.11057  eV     1   --> B_2  D_4  S_4  

 **************************************************************************

 **************************************************************************

                    xk=(   0.42982,   0.24816,   0.00000  )

     Band symmetry, C_2v (mm2)  point group:

     e(  1 -  1) =    -14.61805  eV     1   --> A_1  D_1  S_1  
     e(  2 -  2) =    -11.25718  eV     1   --> A_1  D_1  S_1  
     e(  3 -  3) =     -5.36052  eV     1   --> B_1  D_3  S_3  
     e(  4 -  4) =     -1.97225  eV     1   --> B_2  D_4  S_4  

 **************************************************************************

 **************************************************************************

                    xk=(   0.43860,   0.25322,   0.00000  )

     Band symmetry, C_2v (mm2)  point group:

     e(  1 -  1) =    -14.45552  eV     1   --> A_1  D_1  S_1  
     e(  2 -  2) =    -11.46213  eV     1   --> A_1  D_1  S_1  
     e(  3 -  3) =     -5.38791  eV     1   --> B_1  D_3  S_3  
     e(  4 -  4) =     -1.83977  eV     1   --> B_2  D_4  S_4  

 **************************************************************************

 **************************************************************************

                    xk=(   0.44737,   0.25829,   0.00000  )

     Band symmetry, C_2v (mm2)  point group:

     e(  1 -  1) =    -14.29375  eV     1   --> A_1  D_1  S_1  
     e(  2 -  2) =    -11.66068  eV     1   --> A_1  D_1  S_1  
     e(  3 -  3) =     -5.41166  eV     1   --> B_1  D_3  S_3  
     e(  4 -  4) =     -1.71665  eV     1   --> B_2  D_4  S_4  

 **************************************************************************

 **************************************************************************

                    xk=(   0.45614,   0.26335,   0.00000  )

     Band symmetry, C_2v (mm2)  point group:

     e(  1 -  1) =    -14.13462  eV     1   --> A_1  D_1  S_1  
     e(  2 -  2) =    -11.85092  eV     1   --> A_1  D_1  S_1  
     e(  3 -  3) =     -5.43174  eV     1   --> B_1  D_3  S_3  
     e(  4 -  4) =     -1.60533  eV     1   --> B_2  D_4  S_4  

 **************************************************************************

 **************************************************************************

                    xk=(   0.46491,   0.26842,   0.00000  )

     Band symmetry, C_2v (mm2)  point group:

     e(  1 -  1) =    -13.98128  eV     1   --> A_1  D_1  S_1  
     e(  2 -  2) =    -12.02966  eV     1   --> A_1  D_1  S_1  
     e(  3 -  3) =     -5.44814  eV     1   --> B_1  D_3  S_3  
     e(  4 -  4) =     -1.50856  eV     1   --> B_2  D_4  S_4  

 **************************************************************************

 **************************************************************************

                    xk=(   0.47368,   0.27348,   0.00000  )

     Band symmetry, C_2v (mm2)  point group:

     e(  1 -  1) =    -13.83917  eV     1   --> A_1  D_1  S_1  
     e(  2 -  2) =    -12.19145  eV     1   --> A_1  D_1  S_1  
     e(  3 -  3) =     -5.46083  eV     1   --> B_1  D_3  S_3  
     e(  4 -  4) =     -1.42918  eV     1   --> B_2  D_4  S_4  

 **************************************************************************

 **************************************************************************

                    xk=(   0.48246,   0.27855,   0.00000  )

     Band symmetry, C_2v (mm2)  point group:

     e(  1 -  1) =    -13.71769  eV     1   --> A_1  D_1  S_1  
     e(  2 -  2) =    -12.31601  eV     1   --> A_1  D_1  S_1  
     e(  3 -  3) =     -5.46982  eV     1   --> B_1  D_3  S_3  
     e(  4 -  4) =     -1.36621  eV     1   --> B_2  D_4  S_4  

 **************************************************************************

 **************************************************************************

                    xk=(   0.49123,   0.28361,   0.00000  )

     Band symmetry, C_2v (mm2)  point group:

     e(  1 -  1) =    -13.63196  eV     1   --> A_1  D_1  S_1  
     e(  2 -  2) =    -12.41035  eV     1   --> A_1  D_1  S_1  
     e(  3 -  3) =     -5.47509  eV     1   --> B_1  D_3  S_3  
     e(  4 -  4) =     -1.32949  eV     1   --> B_2  D_4  S_4  

 **************************************************************************

 **************************************************************************

                    xk=(   0.50000,   0.28868,   0.00000  )

     zone border point and non-symmorphic group 
     symmetry decomposition not available

 **************************************************************************

 **************************************************************************

                    xk=(   0.49495,   0.29742,   0.00000  )

     zone border point and non-symmorphic group 
     symmetry decomposition not available

 **************************************************************************

 **************************************************************************

                    xk=(   0.48990,   0.30617,   0.00000  )

     zone border point and non-symmorphic group 
     symmetry decomposition not available

 **************************************************************************

 **************************************************************************

                    xk=(   0.48485,   0.31492,   0.00000  )

     zone border point and non-symmorphic group 
     symmetry decomposition not available

 **************************************************************************

 **************************************************************************

                    xk=(   0.47980,   0.32367,   0.00000  )

     zone border point and non-symmorphic group 
     symmetry decomposition not available

 **************************************************************************

 **************************************************************************

                    xk=(   0.47475,   0.33241,   0.00000  )

     zone border point and non-symmorphic group 
     symmetry decomposition not available

 **************************************************************************

 **************************************************************************

                    xk=(   0.46970,   0.34116,   0.00000  )

     zone border point and non-symmorphic group 
     symmetry decomposition not available

 **************************************************************************

 **************************************************************************

                    xk=(   0.46465,   0.34991,   0.00000  )

     zone border point and non-symmorphic group 
     symmetry decomposition not available

 **************************************************************************

 **************************************************************************

                    xk=(   0.45960,   0.35866,   0.00000  )

     zone border point and non-symmorphic group 
     symmetry decomposition not available

 **************************************************************************

 **************************************************************************

                    xk=(   0.45455,   0.36740,   0.00000  )

     zone border point and non-symmorphic group 
     symmetry decomposition not available

 **************************************************************************

 **************************************************************************

                    xk=(   0.44949,   0.37615,   0.00000  )

     zone border point and non-symmorphic group 
     symmetry decomposition not available

 **************************************************************************

 **************************************************************************

                    xk=(   0.44444,   0.38490,   0.00000  )

     zone border point and non-symmorphic group 
     symmetry decomposition not available

 **************************************************************************

 **************************************************************************

                    xk=(   0.43939,   0.39365,   0.00000  )

     zone border point and non-symmorphic group 
     symmetry decomposition not available

 **************************************************************************

 **************************************************************************

                    xk=(   0.43434,   0.40240,   0.00000  )

     zone border point and non-symmorphic group 
     symmetry decomposition not available

 **************************************************************************

 **************************************************************************

                    xk=(   0.42929,   0.41114,   0.00000  )

     zone border point and non-symmorphic group 
     symmetry decomposition not available

 **************************************************************************

 **************************************************************************

                    xk=(   0.42424,   0.41989,   0.00000  )

     zone border point and non-symmorphic group 
     symmetry decomposition not available

 **************************************************************************

 **************************************************************************

                    xk=(   0.41919,   0.42864,   0.00000  )

     zone border point and non-symmorphic group 
     symmetry decomposition not available

 **************************************************************************

 **************************************************************************

                    xk=(   0.41414,   0.43739,   0.00000  )

     zone border point and non-symmorphic group 
     symmetry decomposition not available

 **************************************************************************

 **************************************************************************

                    xk=(   0.40909,   0.44613,   0.00000  )

     zone border point and non-symmorphic group 
     symmetry decomposition not available

 **************************************************************************

 **************************************************************************

                    xk=(   0.40404,   0.45488,   0.00000  )

     zone border point and non-symmorphic group 
     symmetry decomposition not available

 **************************************************************************

 **************************************************************************

                    xk=(   0.39899,   0.46363,   0.00000  )

     zone border point and non-symmorphic group 
     symmetry decomposition not available

 **************************************************************************

 **************************************************************************

                    xk=(   0.39394,   0.47238,   0.00000  )

     zone border point and non-symmorphic group 
     symmetry decomposition not available

 **************************************************************************

 **************************************************************************

                    xk=(   0.38889,   0.48113,   0.00000  )

     zone border point and non-symmorphic group 
     symmetry decomposition not available

 **************************************************************************

 **************************************************************************

                    xk=(   0.38384,   0.48987,   0.00000  )

     zone border point and non-symmorphic group 
     symmetry decomposition not available

 **************************************************************************

 **************************************************************************

                    xk=(   0.37879,   0.49862,   0.00000  )

     zone border point and non-symmorphic group 
     symmetry decomposition not available

 **************************************************************************

 **************************************************************************

                    xk=(   0.37374,   0.50737,   0.00000  )

     zone border point and non-symmorphic group 
     symmetry decomposition not available

 **************************************************************************

 **************************************************************************

                    xk=(   0.36869,   0.51612,   0.00000  )

     zone border point and non-symmorphic group 
     symmetry decomposition not available

 **************************************************************************

 **************************************************************************

                    xk=(   0.36364,   0.52486,   0.00000  )

     zone border point and non-symmorphic group 
     symmetry decomposition not available

 **************************************************************************

 **************************************************************************

                    xk=(   0.35859,   0.53361,   0.00000  )

     zone border point and non-symmorphic group 
     symmetry decomposition not available

 **************************************************************************

 **************************************************************************

                    xk=(   0.35354,   0.54236,   0.00000  )

     zone border point and non-symmorphic group 
     symmetry decomposition not available

 **************************************************************************

 **************************************************************************

                    xk=(   0.34848,   0.55111,   0.00000  )

     zone border point and non-symmorphic group 
     symmetry decomposition not available

 **************************************************************************

 **************************************************************************

                    xk=(   0.34343,   0.55985,   0.00000  )

     zone border point and non-symmorphic group 
     symmetry decomposition not available

 **************************************************************************

 **************************************************************************

                    xk=(   0.33838,   0.56860,   0.00000  )

     zone border point and non-symmorphic group 
     symmetry decomposition not available

 **************************************************************************

 **************************************************************************

                    xk=(   0.33333,   0.57735,   0.00000  )

     zone border point and non-symmorphic group 
     symmetry decomposition not available

 **************************************************************************

 **************************************************************************

                    xk=(   0.32836,   0.56873,   0.00000  )

     point group C_2v (mm2) 
     there are  4 classes
     the character table:

       E     C2    s_v   s_v' 
A_1    1.00  1.00  1.00  1.00
A_2    1.00  1.00 -1.00 -1.00
B_1    1.00 -1.00  1.00 -1.00
B_2    1.00 -1.00 -1.00  1.00

     the symmetry operations in each class and the name of the first element:

     E        1
                                                                 
     C2       2
                                                                 
     s_v      3
                                                                 
     s_v'     4
                                                                 

     Band symmetry, C_2v (mm2)  point group:

     e(  1 -  1) =    -11.97312  eV     1   --> A_1  D_1  S_1  
     e(  2 -  2) =    -11.75453  eV     1   --> B_1  D_3  S_3  
     e(  3 -  3) =     -9.59535  eV     1   --> A_1  D_1  S_1  
     e(  4 -  4) =      0.91485  eV     1   --> B_2  D_4  S_4  

 **************************************************************************

 **************************************************************************

                    xk=(   0.32338,   0.56012,   0.00000  )

     Band symmetry, C_2v (mm2)  point group:

     e(  1 -  1) =    -12.10210  eV     1   --> A_1  D_1  S_1  
     e(  2 -  2) =    -11.64591  eV     1   --> B_1  D_3  S_3  
     e(  3 -  3) =     -9.56345  eV     1   --> A_1  D_1  S_1  
     e(  4 -  4) =      0.76735  eV     1   --> B_2  D_4  S_4  

 **************************************************************************

 **************************************************************************

                    xk=(   0.31841,   0.55150,   0.00000  )

     Band symmetry, C_2v (mm2)  point group:

     e(  1 -  1) =    -12.24727  eV     1   --> A_1  D_1  S_1  
     e(  2 -  2) =    -11.53425  eV     1   --> B_1  D_3  S_3  
     e(  3 -  3) =     -9.52054  eV     1   --> A_1  D_1  S_1  
     e(  4 -  4) =      0.60133  eV     1   --> B_2  D_4  S_4  

 **************************************************************************

 **************************************************************************

                    xk=(   0.31343,   0.54288,   0.00000  )

     Band symmetry, C_2v (mm2)  point group:

     e(  1 -  1) =    -12.39925  eV     1   --> A_1  D_1  S_1  
     e(  2 -  2) =    -11.41954  eV     1   --> B_1  D_3  S_3  
     e(  3 -  3) =     -9.45597  eV     1   --> A_1  D_1  S_1  
     e(  4 -  4) =      0.44491  eV     1   --> B_2  D_4  S_4  

 **************************************************************************

 **************************************************************************

                    xk=(   0.30846,   0.53426,   0.00000  )

     Band symmetry, C_2v (mm2)  point group:

     e(  1 -  1) =    -12.55937  eV     1   --> A_1  D_1  S_1  
     e(  2 -  2) =    -11.31818  eV     1   --> B_1  D_3  S_3  
     e(  3 -  3) =     -9.40382  eV     1   --> A_1  D_1  S_1  
     e(  4 -  4) =      0.28081  eV     1   --> B_2  D_4  S_4  

 **************************************************************************

 **************************************************************************

                    xk=(   0.30348,   0.52565,   0.00000  )

     Band symmetry, C_2v (mm2)  point group:

     e(  1 -  1) =    -12.72416  eV     1   --> A_1  D_1  S_1  
     e(  2 -  2) =    -11.19818  eV     1   --> B_1  D_3  S_3  
     e(  3 -  3) =     -9.31706  eV     1   --> A_1  D_1  S_1  
     e(  4 -  4) =      0.11743  eV     1   --> B_2  D_4  S_4  

 **************************************************************************

 **************************************************************************

                    xk=(   0.29851,   0.51703,   0.00000  )

     Band symmetry, C_2v (mm2)  point group:

     e(  1 -  1) =    -12.89270  eV     1   --> A_1  D_1  S_1  
     e(  2 -  2) =    -11.07520  eV     1   --> B_1  D_3  S_3  
     e(  3 -  3) =     -9.22157  eV     1   --> A_1  D_1  S_1  
     e(  4 -  4) =     -0.04874  eV     1   --> B_2  D_4  S_4  

 **************************************************************************

 **************************************************************************

                    xk=(   0.29353,   0.50841,   0.00000  )

     Band symmetry, C_2v (mm2)  point group:

     e(  1 -  1) =    -13.06292  eV     1   --> A_1  D_1  S_1  
     e(  2 -  2) =    -10.96040  eV     1   --> B_1  D_3  S_3  
     e(  3 -  3) =     -9.15185  eV     1   --> A_1  D_1  S_1  
     e(  4 -  4) =     -0.22960  eV     1   --> B_2  D_4  S_4  

 **************************************************************************

 **************************************************************************

                    xk=(   0.28856,   0.49980,   0.00000  )

     Band symmetry, C_2v (mm2)  point group:

     e(  1 -  1) =    -13.23536  eV     1   --> A_1  D_1  S_1  
     e(  2 -  2) =    -10.83180  eV     1   --> B_1  D_3  S_3  
     e(  3 -  3) =     -9.04308  eV     1   --> A_1  D_1  S_1  
     e(  4 -  4) =     -0.40073  eV     1   --> B_2  D_4  S_4  

 **************************************************************************

 **************************************************************************

                    xk=(   0.28358,   0.49118,   0.00000  )

     Band symmetry, C_2v (mm2)  point group:

     e(  1 -  1) =    -13.40844  eV     1   --> A_1  D_1  S_1  
     e(  2 -  2) =    -10.70026  eV     1   --> B_1  D_3  S_3  
     e(  3 -  3) =     -8.92862  eV     1   --> A_1  D_1  S_1  
     e(  4 -  4) =     -0.57337  eV     1   --> B_2  D_4  S_4  

 **************************************************************************

 **************************************************************************

                    xk=(   0.27861,   0.48256,   0.00000  )

     Band symmetry, C_2v (mm2)  point group:

     e(  1 -  1) =    -13.58153  eV     1   --> A_1  D_1  S_1  
     e(  2 -  2) =    -10.56581  eV     1   --> B_1  D_3  S_3  
     e(  3 -  3) =     -8.80912  eV     1   --> A_1  D_1  S_1  
     e(  4 -  4) =     -0.74712  eV     1   --> B_2  D_4  S_4  

 **************************************************************************

 **************************************************************************

                    xk=(   0.27363,   0.47394,   0.00000  )

     Band symmetry, C_2v (mm2)  point group:

     e(  1 -  1) =    -13.75409  eV     1   --> A_1  D_1  S_1  
     e(  2 -  2) =    -10.42845  eV     1   --> B_1  D_3  S_3  
     e(  3 -  3) =     -8.68510  eV     1   --> A_1  D_1  S_1  
     e(  4 -  4) =     -0.92164  eV     1   --> B_2  D_4  S_4  

 **************************************************************************

 **************************************************************************

                    xk=(   0.26866,   0.46533,   0.00000  )

     Band symmetry, C_2v (mm2)  point group:

     e(  1 -  1) =    -13.92571  eV     1   --> A_1  D_1  S_1  
     e(  2 -  2) =    -10.28822  eV     1   --> B_1  D_3  S_3  
     e(  3 -  3) =     -8.55698  eV     1   --> A_1  D_1  S_1  
     e(  4 -  4) =     -1.09658  eV     1   --> B_2  D_4  S_4  

 **************************************************************************

 **************************************************************************

                    xk=(   0.26368,   0.45671,   0.00000  )

     Band symmetry, C_2v (mm2)  point group:

     e(  1 -  1) =    -14.09604  eV     1   --> A_1  D_1  S_1  
     e(  2 -  2) =    -10.14513  eV     1   --> B_1  D_3  S_3  
     e(  3 -  3) =     -8.42512  eV     1   --> A_1  D_1  S_1  
     e(  4 -  4) =     -1.27160  eV     1   --> B_2  D_4  S_4  

 **************************************************************************

 **************************************************************************

                    xk=(   0.25871,   0.44809,   0.00000  )

     Band symmetry, C_2v (mm2)  point group:

     e(  1 -  1) =    -14.26480  eV     1   --> A_1  D_1  S_1  
     e(  2 -  2) =     -9.99921  eV     1   --> B_1  D_3  S_3  
     e(  3 -  3) =     -8.28984  eV     1   --> A_1  D_1  S_1  
     e(  4 -  4) =     -1.44641  eV     1   --> B_2  D_4  S_4  

 **************************************************************************

 **************************************************************************

                    xk=(   0.25373,   0.43948,   0.00000  )

     Band symmetry, C_2v (mm2)  point group:

     e(  1 -  1) =    -14.42152  eV     1   --> A_1  D_1  S_1  
     e(  2 -  2) =     -9.84684  eV     1   --> B_1  D_3  S_3  
     e(  3 -  3) =     -8.14523  eV     1   --> A_1  D_1  S_1  
     e(  4 -  4) =     -1.61506  eV     1   --> B_2  D_4  S_4  

 **************************************************************************

 **************************************************************************

                    xk=(   0.24876,   0.43086,   0.00000  )

     Band symmetry, C_2v (mm2)  point group:

     e(  1 -  1) =    -14.58691  eV     1   --> A_1  D_1  S_1  
     e(  2 -  2) =     -9.69538  eV     1   --> B_1  D_3  S_3  
     e(  3 -  3) =     -8.00399  eV     1   --> A_1  D_1  S_1  
     e(  4 -  4) =     -1.78879  eV     1   --> B_2  D_4  S_4  

 **************************************************************************

 **************************************************************************

                    xk=(   0.24378,   0.42224,   0.00000  )

     Band symmetry, C_2v (mm2)  point group:

     e(  1 -  1) =    -14.75011  eV     1   --> A_1  D_1  S_1  
     e(  2 -  2) =     -9.54117  eV     1   --> B_1  D_3  S_3  
     e(  3 -  3) =     -7.86003  eV     1   --> A_1  D_1  S_1  
     e(  4 -  4) =     -1.96148  eV     1   --> B_2  D_4  S_4  

 **************************************************************************

 **************************************************************************

                    xk=(   0.23881,   0.41362,   0.00000  )

     Band symmetry, C_2v (mm2)  point group:

     e(  1 -  1) =    -14.91102  eV     1   --> A_1  D_1  S_1  
     e(  2 -  2) =     -9.39566  eV     1   --> B_1  D_3  S_3  
     e(  3 -  3) =     -7.74775  eV     1   --> A_1  D_1  S_1  
     e(  4 -  4) =     -2.13340  eV     1   --> B_2  D_4  S_4  

 **************************************************************************

 **************************************************************************

                    xk=(   0.23383,   0.40501,   0.00000  )

     Band symmetry, C_2v (mm2)  point group:

     e(  1 -  1) =    -15.06943  eV     1   --> A_1  D_1  S_1  
     e(  2 -  2) =     -9.23634  eV     1   --> B_1  D_3  S_3  
     e(  3 -  3) =     -7.59980  eV     1   --> A_1  D_1  S_1  
     e(  4 -  4) =     -2.30333  eV     1   --> B_2  D_4  S_4  

 **************************************************************************

 **************************************************************************

                    xk=(   0.22886,   0.39639,   0.00000  )

     Band symmetry, C_2v (mm2)  point group:

     e(  1 -  1) =    -15.22527  eV     1   --> A_1  D_1  S_1  
     e(  2 -  2) =     -9.07437  eV     1   --> B_1  D_3  S_3  
     e(  3 -  3) =     -7.44973  eV     1   --> A_1  D_1  S_1  
     e(  4 -  4) =     -2.47157  eV     1   --> B_2  D_4  S_4  

 **************************************************************************

 **************************************************************************

                    xk=(   0.22388,   0.38777,   0.00000  )

     Band symmetry, C_2v (mm2)  point group:

     e(  1 -  1) =    -15.37845  eV     1   --> A_1  D_1  S_1  
     e(  2 -  2) =     -8.90980  eV     1   --> B_1  D_3  S_3  
     e(  3 -  3) =     -7.29773  eV     1   --> A_1  D_1  S_1  
     e(  4 -  4) =     -2.63792  eV     1   --> B_2  D_4  S_4  

 **************************************************************************

 **************************************************************************

                    xk=(   0.21891,   0.37916,   0.00000  )

     Band symmetry, C_2v (mm2)  point group:

     e(  1 -  1) =    -15.52887  eV     1   --> A_1  D_1  S_1  
     e(  2 -  2) =     -8.74269  eV     1   --> B_1  D_3  S_3  
     e(  3 -  3) =     -7.15762  eV     1   --> A_1  D_1  S_1  
     e(  4 -  4) =     -2.80787  eV     1   --> B_2  D_4  S_4  

 **************************************************************************

 **************************************************************************

                    xk=(   0.21393,   0.37054,   0.00000  )

     Band symmetry, C_2v (mm2)  point group:

     e(  1 -  1) =    -15.67646  eV     1   --> A_1  D_1  S_1  
     e(  2 -  2) =     -8.57307  eV     1   --> B_1  D_3  S_3  
     e(  3 -  3) =     -7.00255  eV     1   --> A_1  D_1  S_1  
     e(  4 -  4) =     -2.96987  eV     1   --> B_2  D_4  S_4  

 **************************************************************************

 **************************************************************************

                    xk=(   0.20896,   0.36192,   0.00000  )

     Band symmetry, C_2v (mm2)  point group:

     e(  1 -  1) =    -15.81948  eV     1   --> A_1  D_1  S_1  
     e(  2 -  2) =     -8.38973  eV     1   --> B_1  D_3  S_3  
     e(  3 -  3) =     -6.83899  eV     1   --> A_1  D_1  S_1  
     e(  4 -  4) =     -3.12611  eV     1   --> B_2  D_4  S_4  

 **************************************************************************

 **************************************************************************

                    xk=(   0.20398,   0.35330,   0.00000  )

     Band symmetry, C_2v (mm2)  point group:

     e(  1 -  1) =    -15.96007  eV     1   --> A_1  D_1  S_1  
     e(  2 -  2) =     -8.21340  eV     1   --> B_1  D_3  S_3  
     e(  3 -  3) =     -6.67885  eV     1   --> A_1  D_1  S_1  
     e(  4 -  4) =     -3.27866  eV     1   --> B_2  D_4  S_4  

 **************************************************************************

 **************************************************************************

                    xk=(   0.19900,   0.34469,   0.00000  )

     Band symmetry, C_2v (mm2)  point group:

     e(  1 -  1) =    -16.09895  eV     1   --> A_1  D_1  S_1  
     e(  2 -  2) =     -8.03617  eV     1   --> B_1  D_3  S_3  
     e(  3 -  3) =     -6.52010  eV     1   --> A_1  D_1  S_1  
     e(  4 -  4) =     -3.43334  eV     1   --> B_2  D_4  S_4  

 **************************************************************************

 **************************************************************************

                    xk=(   0.19403,   0.33607,   0.00000  )

     Band symmetry, C_2v (mm2)  point group:

     e(  1 -  1) =    -16.23478  eV     1   --> A_1  D_1  S_1  
     e(  2 -  2) =     -7.85668  eV     1   --> B_1  D_3  S_3  
     e(  3 -  3) =     -6.36044  eV     1   --> A_1  D_1  S_1  
     e(  4 -  4) =     -3.58523  eV     1   --> B_2  D_4  S_4  

 **************************************************************************

 **************************************************************************

                    xk=(   0.18905,   0.32745,   0.00000  )

     Band symmetry, C_2v (mm2)  point group:

     e(  1 -  1) =    -16.36750  eV     1   --> A_1  D_1  S_1  
     e(  2 -  2) =     -7.67500  eV     1   --> B_1  D_3  S_3  
     e(  3 -  3) =     -6.20005  eV     1   --> A_1  D_1  S_1  
     e(  4 -  4) =     -3.73424  eV     1   --> B_2  D_4  S_4  

 **************************************************************************

 **************************************************************************

                    xk=(   0.18408,   0.31884,   0.00000  )

     Band symmetry, C_2v (mm2)  point group:

     e(  1 -  1) =    -16.49754  eV     1   --> A_1  D_1  S_1  
     e(  2 -  2) =     -7.51611  eV     1   --> B_1  D_3  S_3  
     e(  3 -  3) =     -6.05255  eV     1   --> A_1  D_1  S_1  
     e(  4 -  4) =     -3.88464  eV     1   --> B_2  D_4  S_4  

 **************************************************************************

 **************************************************************************

                    xk=(   0.17910,   0.31022,   0.00000  )

     Band symmetry, C_2v (mm2)  point group:

     e(  1 -  1) =    -16.61694  eV     1   --> A_1  D_1  S_1  
     e(  2 -  2) =     -7.32723  eV     1   --> B_1  D_3  S_3  
     e(  3 -  3) =     -5.88444  eV     1   --> A_1  D_1  S_1  
     e(  4 -  4) =     -4.02487  eV     1   --> B_2  D_4  S_4  

 **************************************************************************

 **************************************************************************

                    xk=(   0.17413,   0.30160,   0.00000  )

     Band symmetry, C_2v (mm2)  point group:

     e(  1 -  1) =    -16.74157  eV     1   --> A_1  D_1  S_1  
     e(  2 -  2) =     -7.15220  eV     1   --> B_1  D_3  S_3  
     e(  3 -  3) =     -5.73283  eV     1   --> A_1  D_1  S_1  
     e(  4 -  4) =     -4.17804  eV     1   --> B_2  D_4  S_4  

 **************************************************************************

 **************************************************************************

                    xk=(   0.16915,   0.29298,   0.00000  )

     Band symmetry, C_2v (mm2)  point group:

     e(  1 -  1) =    -16.86178  eV     1   --> A_1  D_1  S_1  
     e(  2 -  2) =     -6.96439  eV     1   --> B_1  D_3  S_3  
     e(  3 -  3) =     -5.57237  eV     1   --> A_1  D_1  S_1  
     e(  4 -  4) =     -4.31479  eV     1   --> B_2  D_4  S_4  

 **************************************************************************

 **************************************************************************

                    xk=(   0.16418,   0.28437,   0.00000  )

     Band symmetry, C_2v (mm2)  point group:

     e(  1 -  1) =    -16.97870  eV     1   --> A_1  D_1  S_1  
     e(  2 -  2) =     -6.77495  eV     1   --> B_1  D_3  S_3  
     e(  3 -  3) =     -5.41218  eV     1   --> A_1  D_1  S_1  
     e(  4 -  4) =     -4.44819  eV     1   --> B_2  D_4  S_4  

 **************************************************************************

 **************************************************************************

                    xk=(   0.15920,   0.27575,   0.00000  )

     Band symmetry, C_2v (mm2)  point group:

     e(  1 -  1) =    -17.09232  eV     1   --> A_1  D_1  S_1  
     e(  2 -  2) =     -6.58401  eV     1   --> B_1  D_3  S_3  
     e(  3 -  3) =     -5.25249  eV     1   --> A_1  D_1  S_1  
     e(  4 -  4) =     -4.57819  eV     1   --> B_2  D_4  S_4  

 **************************************************************************

 **************************************************************************

                    xk=(   0.15423,   0.26713,   0.00000  )

     Band symmetry, C_2v (mm2)  point group:

     e(  1 -  1) =    -17.20261  eV     1   --> A_1  D_1  S_1  
     e(  2 -  2) =     -6.39170  eV     1   --> B_1  D_3  S_3  
     e(  3 -  3) =     -5.09351  eV     1   --> A_1  D_1  S_1  
     e(  4 -  4) =     -4.70469  eV     1   --> B_2  D_4  S_4  

 **************************************************************************

 **************************************************************************

                    xk=(   0.14925,   0.25852,   0.00000  )

     Band symmetry, C_2v (mm2)  point group:

     e(  1 -  1) =    -17.30906  eV     1   --> A_1  D_1  S_1  
     e(  2 -  2) =     -6.18321  eV     1   --> B_1  D_3  S_3  
     e(  3 -  3) =     -4.90480  eV     1   --> A_1  D_1  S_1  
     e(  4 -  4) =     -4.82518  eV     1   --> B_2  D_4  S_4  

 **************************************************************************

 **************************************************************************

                    xk=(   0.14428,   0.24990,   0.00000  )

     Band symmetry, C_2v (mm2)  point group:

     e(  1 -  1) =    -17.41264  eV     1   --> A_1  D_1  S_1  
     e(  2 -  2) =     -5.98843  eV     1   --> B_1  D_3  S_3  
     e(  3 -  3) =     -4.94460  eV     1   --> B_2  D_4  S_4  
     e(  4 -  4) =     -4.74804  eV     1   --> A_1  D_1  S_1  

 **************************************************************************

 **************************************************************************

                    xk=(   0.13930,   0.24128,   0.00000  )

     Band symmetry, C_2v (mm2)  point group:

     e(  1 -  1) =    -17.51301  eV     1   --> A_1  D_1  S_1  
     e(  2 -  2) =     -5.82750  eV     1   --> B_1  D_3  S_3  
     e(  3 -  3) =     -5.07193  eV     1   --> B_2  D_4  S_4  
     e(  4 -  4) =     -4.64769  eV     1   --> A_1  D_1  S_1  

 **************************************************************************

 **************************************************************************

                    xk=(   0.13433,   0.23266,   0.00000  )

     Band symmetry, C_2v (mm2)  point group:

     e(  1 -  1) =    -17.60978  eV     1   --> A_1  D_1  S_1  
     e(  2 -  2) =     -5.63223  eV     1   --> B_1  D_3  S_3  
     e(  3 -  3) =     -5.18403  eV     1   --> B_2  D_4  S_4  
     e(  4 -  4) =     -4.49584  eV     1   --> A_1  D_1  S_1  

 **************************************************************************

 **************************************************************************

                    xk=(   0.12935,   0.22405,   0.00000  )

     Band symmetry, C_2v (mm2)  point group:

     e(  1 -  1) =    -17.70328  eV     1   --> A_1  D_1  S_1  
     e(  2 -  2) =     -5.45216  eV     1   --> B_1  D_3  S_3  
     e(  3 -  3) =     -5.29236  eV     1   --> B_2  D_4  S_4  
     e(  4 -  4) =     -4.34599  eV     1   --> A_1  D_1  S_1  

 **************************************************************************

 **************************************************************************

                    xk=(   0.12438,   0.21543,   0.00000  )

     Band symmetry, C_2v (mm2)  point group:

     e(  1 -  1) =    -17.78873  eV     1   --> A_1  D_1  S_1  
     e(  2 -  2) =     -5.39576  eV     1   --> B_2  D_4  S_4  
     e(  3 -  3) =     -5.25322  eV     1   --> B_1  D_3  S_3  
     e(  4 -  4) =     -4.19154  eV     1   --> A_1  D_1  S_1  

 **************************************************************************

 **************************************************************************

                    xk=(   0.11940,   0.20681,   0.00000  )

     Band symmetry, C_2v (mm2)  point group:

     e(  1 -  1) =    -17.87574  eV     1   --> A_1  D_1  S_1  
     e(  2 -  2) =     -5.49660  eV     1   --> B_2  D_4  S_4  
     e(  3 -  3) =     -5.09430  eV     1   --> B_1  D_3  S_3  
     e(  4 -  4) =     -4.04676  eV     1   --> A_1  D_1  S_1  

 **************************************************************************

 **************************************************************************

                    xk=(   0.11443,   0.19819,   0.00000  )

     Band symmetry, C_2v (mm2)  point group:

     e(  1 -  1) =    -17.95900  eV     1   --> A_1  D_1  S_1  
     e(  2 -  2) =     -5.59345  eV     1   --> B_2  D_4  S_4  
     e(  3 -  3) =     -4.90191  eV     1   --> B_1  D_3  S_3  
     e(  4 -  4) =     -3.90479  eV     1   --> A_1  D_1  S_1  

 **************************************************************************

 **************************************************************************

                    xk=(   0.10945,   0.18958,   0.00000  )

     Band symmetry, C_2v (mm2)  point group:

     e(  1 -  1) =    -18.03879  eV     1   --> A_1  D_1  S_1  
     e(  2 -  2) =     -5.68637  eV     1   --> B_2  D_4  S_4  
     e(  3 -  3) =     -4.71041  eV     1   --> B_1  D_3  S_3  
     e(  4 -  4) =     -3.76591  eV     1   --> A_1  D_1  S_1  

 **************************************************************************

 **************************************************************************

                    xk=(   0.10448,   0.18096,   0.00000  )

     Band symmetry, C_2v (mm2)  point group:

     e(  1 -  1) =    -18.11508  eV     1   --> A_1  D_1  S_1  
     e(  2 -  2) =     -5.77535  eV     1   --> B_2  D_4  S_4  
     e(  3 -  3) =     -4.52017  eV     1   --> B_1  D_3  S_3  
     e(  4 -  4) =     -3.63041  eV     1   --> A_1  D_1  S_1  

 **************************************************************************

 **************************************************************************

                    xk=(   0.09950,   0.17234,   0.00000  )

     Band symmetry, C_2v (mm2)  point group:

     e(  1 -  1) =    -18.18787  eV     1   --> A_1  D_1  S_1  
     e(  2 -  2) =     -5.86034  eV     1   --> B_2  D_4  S_4  
     e(  3 -  3) =     -4.33159  eV     1   --> B_1  D_3  S_3  
     e(  4 -  4) =     -3.49855  eV     1   --> A_1  D_1  S_1  

 **************************************************************************

 **************************************************************************

                    xk=(   0.09453,   0.16373,   0.00000  )

     Band symmetry, C_2v (mm2)  point group:

     e(  1 -  1) =    -18.25341  eV     1   --> A_1  D_1  S_1  
     e(  2 -  2) =     -5.93939  eV     1   --> B_2  D_4  S_4  
     e(  3 -  3) =     -4.15091  eV     1   --> B_1  D_3  S_3  
     e(  4 -  4) =     -3.35708  eV     1   --> A_1  D_1  S_1  

 **************************************************************************

 **************************************************************************

                    xk=(   0.08955,   0.15511,   0.00000  )

     Band symmetry, C_2v (mm2)  point group:

     e(  1 -  1) =    -18.31945  eV     1   --> A_1  D_1  S_1  
     e(  2 -  2) =     -6.01641  eV     1   --> B_2  D_4  S_4  
     e(  3 -  3) =     -3.96894  eV     1   --> B_1  D_3  S_3  
     e(  4 -  4) =     -3.23410  eV     1   --> A_1  D_1  S_1  

 **************************************************************************

 **************************************************************************

                    xk=(   0.08458,   0.14649,   0.00000  )

     Band symmetry, C_2v (mm2)  point group:

     e(  1 -  1) =    -18.38063  eV     1   --> A_1  D_1  S_1  
     e(  2 -  2) =     -6.08937  eV     1   --> B_2  D_4  S_4  
     e(  3 -  3) =     -3.78862  eV     1   --> B_1  D_3  S_3  
     e(  4 -  4) =     -3.11327  eV     1   --> A_1  D_1  S_1  

 **************************************************************************

 **************************************************************************

                    xk=(   0.07960,   0.13787,   0.00000  )

     Band symmetry, C_2v (mm2)  point group:

     e(  1 -  1) =    -18.43970  eV     1   --> A_1  D_1  S_1  
     e(  2 -  2) =     -6.15825  eV     1   --> B_2  D_4  S_4  
     e(  3 -  3) =     -3.61373  eV     1   --> B_1  D_3  S_3  
     e(  4 -  4) =     -2.99978  eV     1   --> A_1  D_1  S_1  

 **************************************************************************

 **************************************************************************

                    xk=(   0.07463,   0.12926,   0.00000  )

     Band symmetry, C_2v (mm2)  point group:

     e(  1 -  1) =    -18.49520  eV     1   --> A_1  D_1  S_1  
     e(  2 -  2) =     -6.22393  eV     1   --> B_2  D_4  S_4  
     e(  3 -  3) =     -3.46506  eV     1   --> B_1  D_3  S_3  
     e(  4 -  4) =     -2.90901  eV     1   --> A_1  D_1  S_1  

 **************************************************************************

 **************************************************************************

                    xk=(   0.06965,   0.12064,   0.00000  )

     Band symmetry, C_2v (mm2)  point group:

     e(  1 -  1) =    -18.54714  eV     1   --> A_1  D_1  S_1  
     e(  2 -  2) =     -6.28459  eV     1   --> B_2  D_4  S_4  
     e(  3 -  3) =     -3.30067  eV     1   --> B_1  D_3  S_3  
     e(  4 -  4) =     -2.80704  eV     1   --> A_1  D_1  S_1  

 **************************************************************************

 **************************************************************************

                    xk=(   0.06468,   0.11202,   0.00000  )

     Band symmetry, C_2v (mm2)  point group:

     e(  1 -  1) =    -18.59551  eV     1   --> A_1  D_1  S_1  
     e(  2 -  2) =     -6.34111  eV     1   --> B_2  D_4  S_4  
     e(  3 -  3) =     -3.14211  eV     1   --> B_1  D_3  S_3  
     e(  4 -  4) =     -2.71069  eV     1   --> A_1  D_1  S_1  

 **************************************************************************

 **************************************************************************

                    xk=(   0.05970,   0.10341,   0.00000  )

     Band symmetry, C_2v (mm2)  point group:

     e(  1 -  1) =    -18.64030  eV     1   --> A_1  D_1  S_1  
     e(  2 -  2) =     -6.39346  eV     1   --> B_2  D_4  S_4  
     e(  3 -  3) =     -2.99013  eV     1   --> B_1  D_3  S_3  
     e(  4 -  4) =     -2.62024  eV     1   --> A_1  D_1  S_1  

 **************************************************************************

 **************************************************************************

                    xk=(   0.05473,   0.09479,   0.00000  )

     Band symmetry, C_2v (mm2)  point group:

     e(  1 -  1) =    -18.68151  eV     1   --> A_1  D_1  S_1  
     e(  2 -  2) =     -6.44164  eV     1   --> B_2  D_4  S_4  
     e(  3 -  3) =     -2.84553  eV     1   --> B_1  D_3  S_3  
     e(  4 -  4) =     -2.53589  eV     1   --> A_1  D_1  S_1  

 **************************************************************************

 **************************************************************************

                    xk=(   0.04975,   0.08617,   0.00000  )

     Band symmetry, C_2v (mm2)  point group:

     e(  1 -  1) =    -18.71914  eV     1   --> A_1  D_1  S_1  
     e(  2 -  2) =     -6.48657  eV     1   --> B_2  D_4  S_4  
     e(  3 -  3) =     -2.76061  eV     1   --> B_1  D_3  S_3  
     e(  4 -  4) =     -2.45914  eV     1   --> A_1  D_1  S_1  

 **************************************************************************

 **************************************************************************

                    xk=(   0.04478,   0.07755,   0.00000  )

     Band symmetry, C_2v (mm2)  point group:

     e(  1 -  1) =    -18.75319  eV     1   --> A_1  D_1  S_1  
     e(  2 -  2) =     -6.52639  eV     1   --> B_2  D_4  S_4  
     e(  3 -  3) =     -2.63562  eV     1   --> B_1  D_3  S_3  
     e(  4 -  4) =     -2.38792  eV     1   --> A_1  D_1  S_1  

 **************************************************************************

 **************************************************************************

                    xk=(   0.03980,   0.06894,   0.00000  )

     Band symmetry, C_2v (mm2)  point group:

     e(  1 -  1) =    -18.78365  eV     1   --> A_1  D_1  S_1  
     e(  2 -  2) =     -6.56200  eV     1   --> B_2  D_4  S_4  
     e(  3 -  3) =     -2.52060  eV     1   --> B_1  D_3  S_3  
     e(  4 -  4) =     -2.32346  eV     1   --> A_1  D_1  S_1  

 **************************************************************************

 **************************************************************************

                    xk=(   0.03483,   0.06032,   0.00000  )

     Band symmetry, C_2v (mm2)  point group:

     e(  1 -  1) =    -18.81003  eV     1   --> A_1  D_1  S_1  
     e(  2 -  2) =     -6.56823  eV     1   --> B_2  D_4  S_4  
     e(  3 -  3) =     -2.41404  eV     1   --> B_1  D_3  S_3  
     e(  4 -  4) =     -2.21481  eV     1   --> A_1  D_1  S_1  

 **************************************************************************

 **************************************************************************

                    xk=(   0.02985,   0.05170,   0.00000  )

     Band symmetry, C_2v (mm2)  point group:

     e(  1 -  1) =    -18.83335  eV     1   --> A_1  D_1  S_1  
     e(  2 -  2) =     -6.59559  eV     1   --> B_2  D_4  S_4  
     e(  3 -  3) =     -2.32141  eV     1   --> B_1  D_3  S_3  
     e(  4 -  4) =     -2.16424  eV     1   --> A_1  D_1  S_1  

 **************************************************************************

 **************************************************************************

                    xk=(   0.02488,   0.04309,   0.00000  )

     Band symmetry, C_2v (mm2)  point group:

     e(  1 -  1) =    -18.85307  eV     1   --> A_1  D_1  S_1  
     e(  2 -  2) =     -6.61871  eV     1   --> B_2  D_4  S_4  
     e(  3 -  3) =     -2.24122  eV     1   --> B_1  D_3  S_3  
     e(  4 -  4) =     -2.12096  eV     1   --> A_1  D_1  S_1  

 **************************************************************************

 **************************************************************************

                    xk=(   0.01990,   0.03447,   0.00000  )

     Band symmetry, C_2v (mm2)  point group:

     e(  1 -  1) =    -18.86926  eV     1   --> A_1  D_1  S_1  
     e(  2 -  2) =     -6.64168  eV     1   --> B_2  D_4  S_4  
     e(  3 -  3) =     -2.19835  eV     1   --> B_1  D_3  S_3  
     e(  4 -  4) =     -2.09321  eV     1   --> A_1  D_1  S_1  

 **************************************************************************

 **************************************************************************

                    xk=(   0.01493,   0.02585,   0.00000  )

     Band symmetry, C_2v (mm2)  point group:

     e(  1 -  1) =    -18.88151  eV     1   --> A_1  D_1  S_1  
     e(  2 -  2) =     -6.64326  eV     1   --> B_2  D_4  S_4  
     e(  3 -  3) =     -2.11620  eV     1   --> B_1  D_3  S_3  
     e(  4 -  4) =     -2.03341  eV     1   --> A_1  D_1  S_1  

 **************************************************************************

 **************************************************************************

                    xk=(   0.00995,   0.01723,   0.00000  )

     Band symmetry, C_2v (mm2)  point group:

     e(  1 -  1) =    -18.89036  eV     1   --> A_1  D_1  S_1  
     e(  2 -  2) =     -6.65245  eV     1   --> B_2  D_4  S_4  
     e(  3 -  3) =     -2.02449  eV     1   --> B_1  D_3  S_3  
     e(  4 -  4) =     -2.00953  eV     1   --> A_1  D_1  S_1  

 **************************************************************************

 **************************************************************************

                    xk=(   0.00498,   0.00862,   0.00000  )

     Band symmetry, C_2v (mm2)  point group:

     e(  1 -  1) =    -18.89576  eV     1   --> A_1  D_1  S_1  
     e(  2 -  2) =     -6.65885  eV     1   --> B_2  D_4  S_4  
     e(  3 -  3) =     -2.00180  eV     1   --> B_1  D_3  S_3  
[...]

     e(  1 -  1) =    -18.59482  eV     1   --> A_1  D_1  S_1  
     e(  2 -  2) =     -6.34165  eV     1   --> B_2  D_4  S_4  
     e(  3 -  3) =     -3.16459  eV     1   --> B_1  D_3  S_3  
     e(  4 -  4) =     -2.67296  eV     1   --> A_1  D_1  S_1  

 **************************************************************************

 **************************************************************************

                    xk=(   0.05970,   0.10341,   0.16667  )

     Band symmetry, C_2v (mm2)  point group:

     e(  1 -  1) =    -18.63966  eV     1   --> A_1  D_1  S_1  
     e(  2 -  2) =     -6.39441  eV     1   --> B_2  D_4  S_4  
     e(  3 -  3) =     -3.01308  eV     1   --> B_1  D_3  S_3  
     e(  4 -  4) =     -2.58219  eV     1   --> A_1  D_1  S_1  

 **************************************************************************

 **************************************************************************

                    xk=(   0.05473,   0.09479,   0.16667  )

     Band symmetry, C_2v (mm2)  point group:

     e(  1 -  1) =    -18.68092  eV     1   --> A_1  D_1  S_1  
     e(  2 -  2) =     -6.44299  eV     1   --> B_2  D_4  S_4  
     e(  3 -  3) =     -2.86893  eV     1   --> B_1  D_3  S_3  
     e(  4 -  4) =     -2.49755  eV     1   --> A_1  D_1  S_1  

 **************************************************************************

 **************************************************************************

                    xk=(   0.04975,   0.08617,   0.16667  )

     Band symmetry, C_2v (mm2)  point group:

     e(  1 -  1) =    -18.71826  eV     1   --> A_1  D_1  S_1  
     e(  2 -  2) =     -6.48565  eV     1   --> B_2  D_4  S_4  
     e(  3 -  3) =     -2.68803  eV     1   --> B_1  D_3  S_3  
     e(  4 -  4) =     -2.41265  eV     1   --> A_1  D_1  S_1  

 **************************************************************************

 **************************************************************************

                    xk=(   0.04478,   0.07755,   0.16667  )

     Band symmetry, C_2v (mm2)  point group:

     e(  1 -  1) =    -18.75239  eV     1   --> A_1  D_1  S_1  
     e(  2 -  2) =     -6.52589  eV     1   --> B_2  D_4  S_4  
     e(  3 -  3) =     -2.56110  eV     1   --> B_1  D_3  S_3  
     e(  4 -  4) =     -2.34135  eV     1   --> A_1  D_1  S_1  

 **************************************************************************

 **************************************************************************

                    xk=(   0.03980,   0.06894,   0.16667  )

     Band symmetry, C_2v (mm2)  point group:

     e(  1 -  1) =    -18.78294  eV     1   --> A_1  D_1  S_1  
     e(  2 -  2) =     -6.56191  eV     1   --> B_2  D_4  S_4  
     e(  3 -  3) =     -2.44416  eV     1   --> B_1  D_3  S_3  
     e(  4 -  4) =     -2.27681  eV     1   --> A_1  D_1  S_1  

 **************************************************************************

 **************************************************************************

                    xk=(   0.03483,   0.06032,   0.16667  )

     Band symmetry, C_2v (mm2)  point group:

     e(  1 -  1) =    -18.80989  eV     1   --> A_1  D_1  S_1  
     e(  2 -  2) =     -6.59371  eV     1   --> B_2  D_4  S_4  
     e(  3 -  3) =     -2.33808  eV     1   --> B_1  D_3  S_3  
     e(  4 -  4) =     -2.21920  eV     1   --> A_1  D_1  S_1  

 **************************************************************************

 **************************************************************************

                    xk=(   0.02985,   0.05170,   0.16667  )

     Band symmetry, C_2v (mm2)  point group:

     e(  1 -  1) =    -18.83329  eV     1   --> A_1  D_1  S_1  
     e(  2 -  2) =     -6.62247  eV     1   --> B_2  D_4  S_4  
     e(  3 -  3) =     -2.27091  eV     1   --> B_1  D_3  S_3  
     e(  4 -  4) =     -2.19398  eV     1   --> A_1  D_1  S_1  

 **************************************************************************

 **************************************************************************

                    xk=(   0.02488,   0.04309,   0.16667  )

     Band symmetry, C_2v (mm2)  point group:

     e(  1 -  1) =    -18.85307  eV     1   --> A_1  D_1  S_1  
     e(  2 -  2) =     -6.64582  eV     1   --> B_2  D_4  S_4  
     e(  3 -  3) =     -2.19012  eV     1   --> B_1  D_3  S_3  
     e(  4 -  4) =     -2.15202  eV     1   --> A_1  D_1  S_1  

 **************************************************************************

 **************************************************************************

                    xk=(   0.01990,   0.03447,   0.16667  )

     Band symmetry, C_2v (mm2)  point group:

     e(  1 -  1) =    -18.86928  eV     1   --> A_1  D_1  S_1  
     e(  2 -  2) =     -6.66614  eV     1   --> B_2  D_4  S_4  
     e(  3 -  3) =     -2.17812  eV     1   --> B_1  D_3  S_3  
     e(  4 -  4) =     -2.12016  eV     1   --> A_1  D_1  S_1  

 **************************************************************************

 **************************************************************************

                    xk=(   0.01493,   0.02585,   0.16667  )

     Band symmetry, C_2v (mm2)  point group:

     e(  1 -  1) =    -18.88187  eV     1   --> A_1  D_1  S_1  
     e(  2 -  2) =     -6.68102  eV     1   --> B_2  D_4  S_4  
     e(  3 -  3) =     -2.12639  eV     1   --> B_1  D_3  S_3  
     e(  4 -  4) =     -2.09343  eV     1   --> A_1  D_1  S_1  

 **************************************************************************

 **************************************************************************

                    xk=(   0.00995,   0.01723,   0.16667  )

     Band symmetry, C_2v (mm2)  point group:

     e(  1 -  1) =    -18.89086  eV     1   --> A_1  D_1  S_1  
     e(  2 -  2) =     -6.69166  eV     1   --> B_2  D_4  S_4  
     e(  3 -  3) =     -2.08905  eV     1   --> B_1  D_3  S_3  
     e(  4 -  4) =     -2.07429  eV     1   --> A_1  D_1  S_1  

 **************************************************************************

 **************************************************************************

                    xk=(   0.00498,   0.00862,   0.16667  )

     Band symmetry, C_2v (mm2)  point group:

     e(  1 -  1) =    -18.89626  eV     1   --> A_1  D_1  S_1  
     e(  2 -  2) =     -6.69804  eV     1   --> B_2  D_4  S_4  
     e(  3 -  3) =     -2.06649  eV     1   --> B_1  D_3  S_3  
     e(  4 -  4) =     -2.06278  eV     1   --> A_1  D_1  S_1  

 **************************************************************************

 **************************************************************************

                    xk=(   0.00000,   0.00000,   0.16667  )

     point group D_6h(6/mmm)
     there are 12 classes
     the character table:

       E     2C6   2C3   C2    3C2'  3C2'' i     2S3   2S6   s_h   3s_d  3s_v 
A_1g   1.00  1.00  1.00  1.00  1.00  1.00  1.00  1.00  1.00  1.00  1.00  1.00
A_2g   1.00  1.00  1.00  1.00 -1.00 -1.00  1.00  1.00  1.00  1.00 -1.00 -1.00
B_1g   1.00 -1.00  1.00 -1.00  1.00 -1.00  1.00 -1.00  1.00 -1.00  1.00 -1.00
B_2g   1.00 -1.00  1.00 -1.00 -1.00  1.00  1.00 -1.00  1.00 -1.00 -1.00  1.00
E_1g   2.00  1.00 -1.00 -2.00  0.00  0.00  2.00  1.00 -1.00 -2.00  0.00  0.00
E_2g   2.00 -1.00 -1.00  2.00  0.00  0.00  2.00 -1.00 -1.00  2.00  0.00  0.00
A_1u   1.00  1.00  1.00  1.00  1.00  1.00 -1.00 -1.00 -1.00 -1.00 -1.00 -1.00
A_2u   1.00  1.00  1.00  1.00 -1.00 -1.00 -1.00 -1.00 -1.00 -1.00  1.00  1.00
B_1u   1.00 -1.00  1.00 -1.00  1.00 -1.00 -1.00  1.00 -1.00  1.00 -1.00  1.00
B_2u   1.00 -1.00  1.00 -1.00 -1.00  1.00 -1.00  1.00 -1.00  1.00  1.00 -1.00
E_1u   2.00  1.00 -1.00 -2.00  0.00  0.00 -2.00 -1.00  1.00  2.00  0.00  0.00
E_2u   2.00 -1.00 -1.00  2.00  0.00  0.00 -2.00  1.00  1.00 -2.00  0.00  0.00

     the symmetry operations in each class and the name of the first element:

     E        1
                                                                 
     2C6      5    6
                                                                 
     2C3      7    8
                                                                 
     C2       2
                                                                 
     3C2'     4   12   11
                                                                 
     3C2''    3    9   10
                                                                 
     i       13
                                                                 
     2S3     17   18
                                                                 
     2S6     19   20
                                                                 
     s_h     14
                                                                 
     3s_d    16   24   23
                                                                 
     3s_v    15   21   22
                                                                 

     Band symmetry, D_6h(6/mmm) point group:

     e(  1 -  1) =    -18.89806  eV     1   --> A_1g           
     e(  2 -  2) =     -6.70017  eV     1   --> A_2u           
     e(  3 -  4) =     -2.05894  eV     2   --> E_2g           

 **************************************************************************

 **************************************************************************

                    xk=(   0.50000,   0.28868,   0.16667  )

     zone border point and non-symmorphic group 
     symmetry decomposition not available

 **************************************************************************

 **************************************************************************

                    xk=(   0.50000,   0.28868,   0.15625  )

     zone border point and non-symmorphic group 
     symmetry decomposition not available

 **************************************************************************

 **************************************************************************

                    xk=(   0.50000,   0.28868,   0.14583  )

     zone border point and non-symmorphic group 
     symmetry decomposition not available

 **************************************************************************

 **************************************************************************

                    xk=(   0.50000,   0.28868,   0.13542  )

     zone border point and non-symmorphic group 
     symmetry decomposition not available

 **************************************************************************

 **************************************************************************

                    xk=(   0.50000,   0.28868,   0.12500  )

     zone border point and non-symmorphic group 
     symmetry decomposition not available

 **************************************************************************

 **************************************************************************

                    xk=(   0.50000,   0.28868,   0.11458  )

     zone border point and non-symmorphic group 
     symmetry decomposition not available

 **************************************************************************

 **************************************************************************

                    xk=(   0.50000,   0.28868,   0.10417  )

     zone border point and non-symmorphic group 
     symmetry decomposition not available

 **************************************************************************

 **************************************************************************

                    xk=(   0.50000,   0.28868,   0.09375  )

     zone border point and non-symmorphic group 
     symmetry decomposition not available

 **************************************************************************

 **************************************************************************

                    xk=(   0.50000,   0.28868,   0.08333  )

     zone border point and non-symmorphic group 
     symmetry decomposition not available

 **************************************************************************

 **************************************************************************

                    xk=(   0.50000,   0.28868,   0.07292  )

     zone border point and non-symmorphic group 
     symmetry decomposition not available

 **************************************************************************

 **************************************************************************

                    xk=(   0.50000,   0.28868,   0.06250  )

     zone border point and non-symmorphic group 
     symmetry decomposition not available

 **************************************************************************

 **************************************************************************

                    xk=(   0.50000,   0.28868,   0.05208  )

     zone border point and non-symmorphic group 
     symmetry decomposition not available

 **************************************************************************

 **************************************************************************

                    xk=(   0.50000,   0.28868,   0.04167  )

     zone border point and non-symmorphic group 
     symmetry decomposition not available

 **************************************************************************

 **************************************************************************

                    xk=(   0.50000,   0.28868,   0.03125  )

     zone border point and non-symmorphic group 
     symmetry decomposition not available

 **************************************************************************

 **************************************************************************

                    xk=(   0.50000,   0.28868,   0.02083  )

     zone border point and non-symmorphic group 
     symmetry decomposition not available

 **************************************************************************

 **************************************************************************

                    xk=(   0.50000,   0.28868,   0.01042  )

     zone border point and non-symmorphic group 
     symmetry decomposition not available

 **************************************************************************

 **************************************************************************

                    xk=(   0.50000,   0.28868,   0.00000  )

     zone border point and non-symmorphic group 
     symmetry decomposition not available

 **************************************************************************

 **************************************************************************

                    xk=(   0.33333,   0.57735,   0.16667  )

     zone border point and non-symmorphic group 
     symmetry decomposition not available

 **************************************************************************

 **************************************************************************

                    xk=(   0.33333,   0.57735,   0.15625  )

     zone border point and non-symmorphic group 
     symmetry decomposition not available

 **************************************************************************

 **************************************************************************

                    xk=(   0.33333,   0.57735,   0.14583  )

     zone border point and non-symmorphic group 
     symmetry decomposition not available

 **************************************************************************

 **************************************************************************

                    xk=(   0.33333,   0.57735,   0.13542  )

     zone border point and non-symmorphic group 
     symmetry decomposition not available

 **************************************************************************

 **************************************************************************

                    xk=(   0.33333,   0.57735,   0.12500  )

     zone border point and non-symmorphic group 
     symmetry decomposition not available

 **************************************************************************

 **************************************************************************

                    xk=(   0.33333,   0.57735,   0.11458  )

     zone border point and non-symmorphic group 
     symmetry decomposition not available

 **************************************************************************

 **************************************************************************

                    xk=(   0.33333,   0.57735,   0.10417  )

     zone border point and non-symmorphic group 
     symmetry decomposition not available

 **************************************************************************

 **************************************************************************

                    xk=(   0.33333,   0.57735,   0.09375  )

     zone border point and non-symmorphic group 
     symmetry decomposition not available

 **************************************************************************

 **************************************************************************

                    xk=(   0.33333,   0.57735,   0.08333  )

     zone border point and non-symmorphic group 
     symmetry decomposition not available

 **************************************************************************

 **************************************************************************

                    xk=(   0.33333,   0.57735,   0.07292  )

     zone border point and non-symmorphic group 
     symmetry decomposition not available

 **************************************************************************

 **************************************************************************

                    xk=(   0.33333,   0.57735,   0.06250  )

     zone border point and non-symmorphic group 
     symmetry decomposition not available

 **************************************************************************

 **************************************************************************

                    xk=(   0.33333,   0.57735,   0.05208  )

     zone border point and non-symmorphic group 
     symmetry decomposition not available

 **************************************************************************

 **************************************************************************

                    xk=(   0.33333,   0.57735,   0.04167  )

     zone border point and non-symmorphic group 
     symmetry decomposition not available

 **************************************************************************

 **************************************************************************

                    xk=(   0.33333,   0.57735,   0.03125  )

     zone border point and non-symmorphic group 
     symmetry decomposition not available

 **************************************************************************

 **************************************************************************

                    xk=(   0.33333,   0.57735,   0.02083  )

     zone border point and non-symmorphic group 
     symmetry decomposition not available

 **************************************************************************

 **************************************************************************

                    xk=(   0.33333,   0.57735,   0.01042  )

     zone border point and non-symmorphic group 
     symmetry decomposition not available

 **************************************************************************

 **************************************************************************

                    xk=(   0.33333,   0.57735,   0.00000  )

     zone border point and non-symmorphic group 
     symmetry decomposition not available

 **************************************************************************

     BANDS        :      4.83s CPU      5.11s WALL


   This run was terminated on:  16:36:25  22Mar2022            

=------------------------------------------------------------------------------=
   JOB DONE.
=------------------------------------------------------------------------------=
