
     Program PWSCF v.7.0 starts on 22Mar2022 at 13:57: 6 

     This program is part of the open-source Quantum ESPRESSO suite
     for quantum simulation of materials; please cite
         "P. Giannozzi et al., J. Phys.:Condens. Matter 21 395502 (2009);
         "P. Giannozzi et al., J. Phys.:Condens. Matter 29 465901 (2017);
         "P. Giannozzi et al., J. Chem. Phys. 152 154105 (2020);
          URL http://www.quantum-espresso.org", 
     in publications or presentations arising from this work. More details at
     http://www.quantum-espresso.org/quote

     Parallel version (MPI), running on     1 processors

     MPI processes distributed on     1 nodes
     0 MiB available memory on the printing compute node when the environment starts

     Reading input from pw.graphene.nscf.in

     Current dimensions of program PWSCF are:
     Max number of different atomic species (ntypx) = 10
     Max number of k-points (npk) =  40000
     Max angular momentum in pseudopotentials (lmaxx) =  4

     Atomic positions and unit cell read from directory:
     ./temp/gp.save/
     Atomic positions from file used, from input discarded

     file C.pbe-n-kjpaw_psl.1.0.0.UPF: wavefunction(s)  2S 2P renormalized
     Message from routine setup:
     using ibrav=0 with symmetry is DISCOURAGED, use correct ibrav instead

     Subspace diagonalization in iterative solution of the eigenvalue problem:
     a serial algorithm will be used


     G-vector sticks info
     --------------------
     sticks:   dense  smooth     PW     G-vecs:    dense   smooth      PW
     Sum         301     121     37                12531     3147     647

     Using Slab Decomposition



     bravais-lattice index     =            0
     lattice parameter (alat)  =       4.6540  a.u.
     unit-cell volume          =     261.8973 (a.u.)^3
     number of atoms/cell      =            2
     number of atomic types    =            1
     number of electrons       =         8.00
     number of Kohn-Sham states=            4
     kinetic-energy cutoff     =      20.0000  Ry
     charge density cutoff     =     200.0000  Ry
     Exchange-correlation= SLA  PW   PBX  PBC
                           (   1   4   3   4   0   0   0)

     celldm(1)=   4.654000  celldm(2)=   0.000000  celldm(3)=   0.000000
     celldm(4)=   0.000000  celldm(5)=   0.000000  celldm(6)=   0.000000

     crystal axes: (cart. coord. in units of alat)
               a(1) = (   1.000000   0.000000   0.000000 )  
               a(2) = (  -0.500000   0.866025   0.000000 )  
               a(3) = (   0.000000   0.000000   3.000000 )  

     reciprocal axes: (cart. coord. in units 2 pi/alat)
               b(1) = (  1.000000  0.577350 -0.000000 )  
               b(2) = (  0.000000  1.154701  0.000000 )  
               b(3) = (  0.000000 -0.000000  0.333333 )  


     PseudoPot. # 1 for C  read from file:
     /Users/vinhtran/Documents/GitHub/DFT/pseudos/C.pbe-n-kjpaw_psl.1.0.0.UPF
     MD5 check sum: 5d2aebdfa2cae82b50a7e79e9516da0f
     Pseudo is Projector augmented-wave + core cor, Zval =  4.0
     Generated using "atomic" code by A. Dal Corso  v.5.1
     Shape of augmentation charge: PSQ
     Using radial grid of 1073 points,  4 beta functions with: 
                l(1) =   0
                l(2) =   0
                l(3) =   1
                l(4) =   1
     Q(r) pseudized with 0 coefficients 


     atomic species   valence    mass     pseudopotential
        C              4.00    12.01070     C ( 1.00)

     24 Sym. Ops., with inversion, found (12 have fractional translation)



   Cartesian axes

     site n.     atom                  positions (alat units)
         1           C   tau(   1) = (   0.0000000   0.0000000   0.0000000  )
         2           C   tau(   2) = (   0.0000000   0.5773503   0.0000000  )

     number of k points=   365

     Number of k-points >= 100: set verbosity='high' to print them.

     Dense  grid:    12531 G-vectors     FFT dimensions: (  24,  24,  64)

     Smooth grid:     3147 G-vectors     FFT dimensions: (  15,  15,  40)

     Estimated max dynamical RAM per process >      13.19 MB

     Check: negative core charge=   -0.000041

     The potential is recalculated from file :
     ./temp/gp.save/charge-density


     negative rho (up, down):  5.331E-06 0.000E+00
     Starting wfcs are    8 randomized atomic wfcs
     Checking if some PAW data can be deallocated... 

     Band Structure Calculation
     Davidson diagonalization with overlap

     ethr =  1.25E-10,  avg # of iterations = 13.9

     total cpu time spent up to now is        4.4 secs

     End of band structure calculation

     Number of k-points >= 100: set verbosity='high' to print the bands.

     Writing all to output data dir ./temp/gp.save/

     init_run     :      0.31s CPU      0.32s WALL (       1 calls)
     electrons    :      3.65s CPU      3.97s WALL (       1 calls)

     Called by init_run:
     wfcinit      :      0.00s CPU      0.00s WALL (       1 calls)
     potinit      :      0.12s CPU      0.12s WALL (       1 calls)
     hinit0       :      0.16s CPU      0.16s WALL (       1 calls)

     Called by electrons:
     c_bands      :      3.65s CPU      3.97s WALL (       1 calls)
     v_of_rho     :      0.01s CPU      0.01s WALL (       1 calls)
     newd         :      0.01s CPU      0.01s WALL (       1 calls)
     PAW_pot      :      0.10s CPU      0.11s WALL (       1 calls)

     Called by c_bands:
     init_us_2    :      0.03s CPU      0.03s WALL (     365 calls)
     init_us_2:cp :      0.03s CPU      0.03s WALL (     365 calls)
     cegterg      :      3.05s CPU      3.34s WALL (     369 calls)

     Called by *egterg:
     cdiaghg      :      0.10s CPU      0.10s WALL (    5453 calls)
     h_psi        :      2.68s CPU      2.84s WALL (    5822 calls)
     s_psi        :      0.06s CPU      0.08s WALL (    5822 calls)
     g_psi        :      0.06s CPU      0.06s WALL (    5088 calls)

     Called by h_psi:
     h_psi:calbec :      0.07s CPU      0.18s WALL (    5822 calls)
     vloc_psi     :      2.51s CPU      2.53s WALL (    5822 calls)
     add_vuspsi   :      0.07s CPU      0.10s WALL (    5822 calls)

     General routines
     calbec       :      0.07s CPU      0.18s WALL (    5822 calls)
     fft          :      0.01s CPU      0.01s WALL (      13 calls)
     ffts         :      0.00s CPU      0.00s WALL (       1 calls)
     fftw         :      1.05s CPU      1.06s WALL (   43702 calls)
     interpolate  :      0.00s CPU      0.00s WALL (       1 calls)
     davcio       :      0.00s CPU      0.00s WALL (     730 calls)

     Parallel routines

     PWSCF        :      4.07s CPU      4.43s WALL


   This run was terminated on:  13:57:11  22Mar2022            

=------------------------------------------------------------------------------=
   JOB DONE.
=------------------------------------------------------------------------------=
