
     Program PWSCF v.7.0 starts on 25Mar2022 at 12: 4: 4 

     This program is part of the open-source Quantum ESPRESSO suite
     for quantum simulation of materials; please cite
         "P. Giannozzi et al., J. Phys.:Condens. Matter 21 395502 (2009);
         "P. Giannozzi et al., J. Phys.:Condens. Matter 29 465901 (2017);
         "P. Giannozzi et al., J. Chem. Phys. 152 154105 (2020);
          URL http://www.quantum-espresso.org", 
     in publications or presentations arising from this work. More details at
     http://www.quantum-espresso.org/quote

     Parallel version (MPI), running on     1 processors

     MPI processes distributed on     1 nodes
     0 MiB available memory on the printing compute node when the environment starts

     Reading input from ScAl.lattice.in

     Current dimensions of program PWSCF are:
     Max number of different atomic species (ntypx) = 10
     Max number of k-points (npk) =  40000
     Max angular momentum in pseudopotentials (lmaxx) =  4
     file Al.pbe-n-kjpaw_psl.1.0.0.UPF: wavefunction(s)  3S 3P renormalized

     Subspace diagonalization in iterative solution of the eigenvalue problem:
     a serial algorithm will be used


     G-vector sticks info
     --------------------
     sticks:   dense  smooth     PW     G-vecs:    dense   smooth      PW
     Sum         545     545    177                 9315     9315    1743

     Using Slab Decomposition



     bravais-lattice index     =            1
     lattice parameter (alat)  =       7.5000  a.u.
     unit-cell volume          =     421.8750 (a.u.)^3
     number of atoms/cell      =            2
     number of atomic types    =            2
     number of electrons       =        14.00
     number of Kohn-Sham states=           11
     kinetic-energy cutoff     =      30.0000  Ry
     charge density cutoff     =     120.0000  Ry
     scf convergence threshold =      1.0E-06
     mixing beta               =       0.7000
     number of iterations used =            8  plain     mixing
     Exchange-correlation= SLA  PW   PBX  PBC
                           (   1   4   3   4   0   0   0)

     celldm(1)=   7.500000  celldm(2)=   0.000000  celldm(3)=   0.000000
     celldm(4)=   0.000000  celldm(5)=   0.000000  celldm(6)=   0.000000

     crystal axes: (cart. coord. in units of alat)
               a(1) = (   1.000000   0.000000   0.000000 )  
               a(2) = (   0.000000   1.000000   0.000000 )  
               a(3) = (   0.000000   0.000000   1.000000 )  

     reciprocal axes: (cart. coord. in units 2 pi/alat)
               b(1) = (  1.000000  0.000000  0.000000 )  
               b(2) = (  0.000000  1.000000  0.000000 )  
               b(3) = (  0.000000  0.000000  1.000000 )  


     PseudoPot. # 1 for Sc read from file:
     /Users/vinhtran/Documents/GitHub/DFT/pseudos/Sc_ONCV_PBE-1.0.oncvpsp.upf
     MD5 check sum: e21af8023abb52e52cb7cd3133e4a229
     Pseudo is Norm-conserving, Zval = 11.0
     Generated using ONCVPSP code by D. R. Hamann
     Using radial grid of 1662 points,  6 beta functions with: 
                l(1) =   0
                l(2) =   0
                l(3) =   1
                l(4) =   1
                l(5) =   2
                l(6) =   2

     PseudoPot. # 2 for Al read from file:
     /Users/vinhtran/Documents/GitHub/DFT/pseudos/Al.pbe-n-kjpaw_psl.1.0.0.UPF
     MD5 check sum: cfc449ca30b5f3223ec38ddd88ac046d
     Pseudo is Projector augmented-wave + core cor, Zval =  3.0
     Generated using "atomic" code by A. Dal Corso  v.5.1
     Shape of augmentation charge: PSQ
     Using radial grid of 1135 points,  6 beta functions with: 
                l(1) =   0
                l(2) =   0
                l(3) =   1
                l(4) =   1
                l(5) =   2
                l(6) =   2
     Q(r) pseudized with 0 coefficients 


     atomic species   valence    mass     pseudopotential
        Sc            11.00    44.95591     Sc( 1.00)
        Al             3.00    26.98154     Al( 1.00)

     48 Sym. Ops., with inversion, found



   Cartesian axes

     site n.     atom                  positions (alat units)
         1           Sc  tau(   1) = (   0.0000000   0.0000000   0.0000000  )
         2           Al  tau(   2) = (   0.5000000   0.5000000   0.5000000  )

     number of k points=     4  Gaussian smearing, width (Ry)=  0.0200
                       cart. coord. in units 2pi/alat
        k(    1) = (   0.0000000   0.0000000   0.0000000), wk =   0.2500000
        k(    2) = (   0.0000000   0.0000000  -0.5000000), wk =   0.7500000
        k(    3) = (   0.0000000  -0.5000000  -0.5000000), wk =   0.7500000
        k(    4) = (  -0.5000000  -0.5000000  -0.5000000), wk =   0.2500000

     Dense  grid:     9315 G-vectors     FFT dimensions: (  27,  27,  27)

     Estimated max dynamical RAM per process >      35.48 MB

     Initial potential from superposition of free atoms

     starting charge      13.9951, renormalised to      14.0000
     Starting wfcs are   14 randomized atomic wfcs
     Checking if some PAW data can be deallocated... 

     total cpu time spent up to now is        0.9 secs

     Self-consistent Calculation

     iteration #  1     ecut=    30.00 Ry     beta= 0.70
     Davidson diagonalization with overlap
     ethr =  1.00E-02,  avg # of iterations =  1.8

     Threshold (ethr) on eigenvalues was too large:
     Diagonalizing with lowered threshold

     Davidson diagonalization with overlap
     ethr =  3.82E-04,  avg # of iterations =  2.2

     total cpu time spent up to now is        1.5 secs

     total energy              =    -131.33947133 Ry
     estimated scf accuracy    <       0.05993509 Ry

     iteration #  2     ecut=    30.00 Ry     beta= 0.70
     Davidson diagonalization with overlap
     ethr =  4.28E-04,  avg # of iterations =  4.2

     total cpu time spent up to now is        2.0 secs

     total energy              =    -131.35167544 Ry
     estimated scf accuracy    <       0.03407626 Ry

     iteration #  3     ecut=    30.00 Ry     beta= 0.70
     Davidson diagonalization with overlap
     ethr =  2.43E-04,  avg # of iterations =  2.8

     total cpu time spent up to now is        2.4 secs

     total energy              =    -131.36033921 Ry
     estimated scf accuracy    <       0.00042669 Ry

     iteration #  4     ecut=    30.00 Ry     beta= 0.70
     Davidson diagonalization with overlap
     ethr =  3.05E-06,  avg # of iterations =  6.2

     total cpu time spent up to now is        2.9 secs

     total energy              =    -131.36050770 Ry
     estimated scf accuracy    <       0.00020880 Ry

     iteration #  5     ecut=    30.00 Ry     beta= 0.70
     Davidson diagonalization with overlap
     ethr =  1.49E-06,  avg # of iterations =  1.2

     total cpu time spent up to now is        3.4 secs

     total energy              =    -131.36043128 Ry
     estimated scf accuracy    <       0.00010133 Ry

     iteration #  6     ecut=    30.00 Ry     beta= 0.70
     Davidson diagonalization with overlap
     ethr =  7.24E-07,  avg # of iterations =  5.0

     total cpu time spent up to now is        3.9 secs

     total energy              =    -131.36047443 Ry
     estimated scf accuracy    <       0.00009582 Ry

     iteration #  7     ecut=    30.00 Ry     beta= 0.70
     Davidson diagonalization with overlap
     ethr =  6.84E-07,  avg # of iterations =  2.8

     total cpu time spent up to now is        4.3 secs

     total energy              =    -131.36048345 Ry
     estimated scf accuracy    <       0.00000654 Ry

     iteration #  8     ecut=    30.00 Ry     beta= 0.70
     Davidson diagonalization with overlap
     ethr =  4.67E-08,  avg # of iterations =  4.5

     total cpu time spent up to now is        4.8 secs

     total energy              =    -131.36048806 Ry
     estimated scf accuracy    <       0.00000146 Ry

     iteration #  9     ecut=    30.00 Ry     beta= 0.70
     Davidson diagonalization with overlap
     ethr =  1.04E-08,  avg # of iterations =  1.0

     total cpu time spent up to now is        5.3 secs

     total energy              =    -131.36048749 Ry
     estimated scf accuracy    <       0.00000145 Ry

     iteration # 10     ecut=    30.00 Ry     beta= 0.70
     Davidson diagonalization with overlap
     ethr =  1.04E-08,  avg # of iterations =  2.5

     total cpu time spent up to now is        5.7 secs

     End of self-consistent calculation

          k = 0.0000 0.0000 0.0000 (  1189 PWs)   bands (ev):

   -46.4271 -24.9066 -24.9066 -24.9066  -1.5075   4.6355   4.6355   6.1965
     6.1965   6.1965   7.3646

          k = 0.0000 0.0000-0.5000 (  1166 PWs)   bands (ev):

   -46.4258 -24.9289 -24.9047 -24.9047   0.2032   1.6791   5.0068   5.2944
     5.2944   6.2919   6.6987

          k = 0.0000-0.5000-0.5000 (  1180 PWs)   bands (ev):

   -46.4247 -24.9269 -24.9269 -24.9031   1.1387   3.6354   3.6354   4.2542
     5.6969   5.6969   6.6349

          k =-0.5000-0.5000-0.5000 (  1088 PWs)   bands (ev):

   -46.4232 -24.9231 -24.9231 -24.9231   3.0350   3.5195   3.5195   3.5195
     6.7558   6.7558   6.9731

     the Fermi energy is     4.6337 ev

!    total energy              =    -131.36048744 Ry
     estimated scf accuracy    <       0.00000022 Ry
     smearing contrib. (-TS)   =      -0.00409462 Ry
     internal energy E=F+TS    =    -131.35639282 Ry

     The total energy is F=E-TS. E is the sum of the following terms:
     one-electron contribution =     -53.40808643 Ry
     hartree contribution      =      26.97567540 Ry
     xc contribution           =     -14.02286600 Ry
     ewald contribution        =     -56.23685956 Ry
     one-center paw contrib.   =     -34.66425623 Ry

     convergence has been achieved in  10 iterations

     Writing all to output data dir ./temp/ScAl.save/

     init_run     :      0.77s CPU      0.79s WALL (       1 calls)
     electrons    :      4.66s CPU      4.81s WALL (       1 calls)

     Called by init_run:
     wfcinit      :      0.03s CPU      0.03s WALL (       1 calls)
     potinit      :      0.33s CPU      0.34s WALL (       1 calls)
     hinit0       :      0.38s CPU      0.39s WALL (       1 calls)

     Called by electrons:
     c_bands      :      0.82s CPU      0.86s WALL (      11 calls)
     sum_band     :      0.42s CPU      0.45s WALL (      11 calls)
     v_of_rho     :      0.07s CPU      0.08s WALL (      11 calls)
     newd         :      0.18s CPU      0.20s WALL (      11 calls)
     PAW_pot      :      3.48s CPU      3.53s WALL (      11 calls)
     mix_rho      :      0.01s CPU      0.01s WALL (      11 calls)

     Called by c_bands:
     init_us_2    :      0.05s CPU      0.05s WALL (      92 calls)
     init_us_2:cp :      0.05s CPU      0.05s WALL (      92 calls)
     cegterg      :      0.56s CPU      0.60s WALL (      44 calls)

     Called by *egterg:
     cdiaghg      :      0.02s CPU      0.02s WALL (     177 calls)
     h_psi        :      0.48s CPU      0.50s WALL (     185 calls)
     s_psi        :      0.01s CPU      0.01s WALL (     185 calls)
     g_psi        :      0.01s CPU      0.01s WALL (     137 calls)

     Called by h_psi:
     h_psi:calbec :      0.02s CPU      0.03s WALL (     185 calls)
     vloc_psi     :      0.44s CPU      0.45s WALL (     185 calls)
     add_vuspsi   :      0.01s CPU      0.02s WALL (     185 calls)

     General routines
     calbec       :      0.02s CPU      0.04s WALL (     229 calls)
     fft          :      0.02s CPU      0.02s WALL (     122 calls)
     ffts         :      0.00s CPU      0.00s WALL (      11 calls)
     fftw         :      0.29s CPU      0.29s WALL (    3062 calls)

     Parallel routines

     PWSCF        :      5.54s CPU      5.72s WALL


   This run was terminated on:  12: 4:10  25Mar2022            

=------------------------------------------------------------------------------=
   JOB DONE.
=------------------------------------------------------------------------------=
