
     Program PWSCF v.7.0 starts on 25Mar2022 at 10:49:17 

     This program is part of the open-source Quantum ESPRESSO suite
     for quantum simulation of materials; please cite
         "P. Giannozzi et al., J. Phys.:Condens. Matter 21 395502 (2009);
         "P. Giannozzi et al., J. Phys.:Condens. Matter 29 465901 (2017);
         "P. Giannozzi et al., J. Chem. Phys. 152 154105 (2020);
          URL http://www.quantum-espresso.org", 
     in publications or presentations arising from this work. More details at
     http://www.quantum-espresso.org/quote

     Parallel version (MPI), running on     1 processors

     MPI processes distributed on     1 nodes
     0 MiB available memory on the printing compute node when the environment starts

     Reading input from ScAl.lattice.in

     Current dimensions of program PWSCF are:
     Max number of different atomic species (ntypx) = 10
     Max number of k-points (npk) =  40000
     Max angular momentum in pseudopotentials (lmaxx) =  4
     file Al.pbe-n-kjpaw_psl.1.0.0.UPF: wavefunction(s)  3S 3P renormalized

     Subspace diagonalization in iterative solution of the eigenvalue problem:
     a serial algorithm will be used


     G-vector sticks info
     --------------------
     sticks:   dense  smooth     PW     G-vecs:    dense   smooth      PW
     Sum         241     241     89                 2777     2777     619

     Using Slab Decomposition



     bravais-lattice index     =            1
     lattice parameter (alat)  =       5.0000  a.u.
     unit-cell volume          =     125.0000 (a.u.)^3
     number of atoms/cell      =            2
     number of atomic types    =            2
     number of electrons       =        14.00
     number of Kohn-Sham states=           11
     kinetic-energy cutoff     =      30.0000  Ry
     charge density cutoff     =     120.0000  Ry
     scf convergence threshold =      1.0E-06
     mixing beta               =       0.7000
     number of iterations used =            8  plain     mixing
     Exchange-correlation= SLA  PW   PBX  PBC
                           (   1   4   3   4   0   0   0)

     celldm(1)=   5.000000  celldm(2)=   0.000000  celldm(3)=   0.000000
     celldm(4)=   0.000000  celldm(5)=   0.000000  celldm(6)=   0.000000

     crystal axes: (cart. coord. in units of alat)
               a(1) = (   1.000000   0.000000   0.000000 )  
               a(2) = (   0.000000   1.000000   0.000000 )  
               a(3) = (   0.000000   0.000000   1.000000 )  

     reciprocal axes: (cart. coord. in units 2 pi/alat)
               b(1) = (  1.000000  0.000000  0.000000 )  
               b(2) = (  0.000000  1.000000  0.000000 )  
               b(3) = (  0.000000  0.000000  1.000000 )  


     PseudoPot. # 1 for Sc read from file:
     /Users/vinhtran/Documents/GitHub/DFT/pseudos/Sc_ONCV_PBE-1.0.oncvpsp.upf
     MD5 check sum: e21af8023abb52e52cb7cd3133e4a229
     Pseudo is Norm-conserving, Zval = 11.0
     Generated using ONCVPSP code by D. R. Hamann
     Using radial grid of 1662 points,  6 beta functions with: 
                l(1) =   0
                l(2) =   0
                l(3) =   1
                l(4) =   1
                l(5) =   2
                l(6) =   2

     PseudoPot. # 2 for Al read from file:
     /Users/vinhtran/Documents/GitHub/DFT/pseudos/Al.pbe-n-kjpaw_psl.1.0.0.UPF
     MD5 check sum: cfc449ca30b5f3223ec38ddd88ac046d
     Pseudo is Projector augmented-wave + core cor, Zval =  3.0
     Generated using "atomic" code by A. Dal Corso  v.5.1
     Shape of augmentation charge: PSQ
     Using radial grid of 1135 points,  6 beta functions with: 
                l(1) =   0
                l(2) =   0
                l(3) =   1
                l(4) =   1
                l(5) =   2
                l(6) =   2
     Q(r) pseudized with 0 coefficients 


     atomic species   valence    mass     pseudopotential
        Sc            11.00    44.95591     Sc( 1.00)
        Al             3.00    26.98154     Al( 1.00)

     48 Sym. Ops., with inversion, found



   Cartesian axes

     site n.     atom                  positions (alat units)
         1           Sc  tau(   1) = (   0.0000000   0.0000000   0.0000000  )
         2           Al  tau(   2) = (   0.5000000   0.5000000   0.5000000  )

     number of k points=     4  Gaussian smearing, width (Ry)=  0.0200
                       cart. coord. in units 2pi/alat
        k(    1) = (   0.0000000   0.0000000   0.0000000), wk =   0.2500000
        k(    2) = (   0.0000000   0.0000000  -0.5000000), wk =   0.7500000
        k(    3) = (   0.0000000  -0.5000000  -0.5000000), wk =   0.7500000
        k(    4) = (  -0.5000000  -0.5000000  -0.5000000), wk =   0.2500000

     Dense  grid:     2777 G-vectors     FFT dimensions: (  18,  18,  18)

     Estimated max dynamical RAM per process >      11.81 MB

     Initial potential from superposition of free atoms

     starting charge      13.9951, renormalised to      14.0000
     Starting wfcs are   14 randomized atomic wfcs
     Checking if some PAW data can be deallocated... 

     total cpu time spent up to now is        0.9 secs

     Self-consistent Calculation

     iteration #  1     ecut=    30.00 Ry     beta= 0.70
     Davidson diagonalization with overlap
     ethr =  1.00E-02,  avg # of iterations =  2.2

     Threshold (ethr) on eigenvalues was too large:
     Diagonalizing with lowered threshold

     Davidson diagonalization with overlap
     ethr =  3.07E-04,  avg # of iterations =  2.5

     total cpu time spent up to now is        1.3 secs

     total energy              =    -130.81824176 Ry
     estimated scf accuracy    <       0.04389359 Ry

     iteration #  2     ecut=    30.00 Ry     beta= 0.70
     Davidson diagonalization with overlap
     ethr =  3.14E-04,  avg # of iterations =  1.8

     total cpu time spent up to now is        1.7 secs

     total energy              =    -130.82048383 Ry
     estimated scf accuracy    <       0.00394973 Ry

     iteration #  3     ecut=    30.00 Ry     beta= 0.70
     Davidson diagonalization with overlap
     ethr =  2.82E-05,  avg # of iterations =  2.0

     total cpu time spent up to now is        2.0 secs

     total energy              =    -130.82130526 Ry
     estimated scf accuracy    <       0.00144726 Ry

     iteration #  4     ecut=    30.00 Ry     beta= 0.70
     Davidson diagonalization with overlap
     ethr =  1.03E-05,  avg # of iterations =  4.0

     total cpu time spent up to now is        2.4 secs

     total energy              =    -130.82157152 Ry
     estimated scf accuracy    <       0.00002629 Ry

     iteration #  5     ecut=    30.00 Ry     beta= 0.70
     Davidson diagonalization with overlap
     ethr =  1.88E-07,  avg # of iterations =  4.2

     total cpu time spent up to now is        2.8 secs

     total energy              =    -130.82158726 Ry
     estimated scf accuracy    <       0.00000151 Ry

     iteration #  6     ecut=    30.00 Ry     beta= 0.70
     Davidson diagonalization with overlap
     ethr =  1.08E-08,  avg # of iterations =  2.2

     total cpu time spent up to now is        3.1 secs

     End of self-consistent calculation

          k = 0.0000 0.0000 0.0000 (   341 PWs)   bands (ev):

   -26.7460  -4.9246  -4.9246  -4.9246  10.6007  18.2607  18.2607  26.4845
    26.4845  26.4845  29.9507

          k = 0.0000 0.0000-0.5000 (   336 PWs)   bands (ev):

   -26.4501  -6.8510  -4.7491  -4.7491  15.3855  16.3576  20.6224  22.4144
    22.4144  27.2558  27.4686

          k = 0.0000-0.5000-0.5000 (   356 PWs)   bands (ev):

   -26.1929  -6.4162  -6.4162  -4.5612  13.9763  19.9723  20.8199  20.8199
    23.1820  23.1820  29.1939

          k =-0.5000-0.5000-0.5000 (   360 PWs)   bands (ev):

   -25.9420  -6.1119  -6.1119  -6.1119  15.9954  15.9954  15.9955  25.5003
    28.5721  28.5721  28.5728

     the Fermi energy is    20.8489 ev

!    total energy              =    -130.82158730 Ry
     estimated scf accuracy    <       0.00000022 Ry
     smearing contrib. (-TS)   =      -0.01048503 Ry
     internal energy E=F+TS    =    -130.81110227 Ry

     The total energy is F=E-TS. E is the sum of the following terms:
     one-electron contribution =     -12.81248570 Ry
     hartree contribution      =      16.85811391 Ry
     xc contribution           =     -15.70944395 Ry
     ewald contribution        =     -84.35528931 Ry
     one-center paw contrib.   =     -34.79199721 Ry

     convergence has been achieved in   6 iterations

     Writing all to output data dir ./temp/ScAl.save/

     init_run     :      0.71s CPU      0.74s WALL (       1 calls)
     electrons    :      2.19s CPU      2.23s WALL (       1 calls)

     Called by init_run:
     wfcinit      :      0.01s CPU      0.02s WALL (       1 calls)
     potinit      :      0.32s CPU      0.32s WALL (       1 calls)
     hinit0       :      0.37s CPU      0.38s WALL (       1 calls)

     Called by electrons:
     c_bands      :      0.16s CPU      0.17s WALL (       7 calls)
     sum_band     :      0.09s CPU      0.09s WALL (       7 calls)
     v_of_rho     :      0.01s CPU      0.02s WALL (       7 calls)
     newd         :      0.03s CPU      0.04s WALL (       7 calls)
     PAW_pot      :      2.20s CPU      2.22s WALL (       7 calls)
     mix_rho      :      0.00s CPU      0.00s WALL (       7 calls)

     Called by c_bands:
     init_us_2    :      0.01s CPU      0.01s WALL (      60 calls)
     init_us_2:cp :      0.01s CPU      0.01s WALL (      60 calls)
     cegterg      :      0.11s CPU      0.12s WALL (      28 calls)

     Called by *egterg:
     cdiaghg      :      0.01s CPU      0.01s WALL (     100 calls)
     h_psi        :      0.09s CPU      0.10s WALL (     108 calls)
     s_psi        :      0.00s CPU      0.00s WALL (     108 calls)
     g_psi        :      0.00s CPU      0.00s WALL (      76 calls)

     Called by h_psi:
     h_psi:calbec :      0.00s CPU      0.01s WALL (     108 calls)
     vloc_psi     :      0.08s CPU      0.09s WALL (     108 calls)
     add_vuspsi   :      0.00s CPU      0.00s WALL (     108 calls)

     General routines
     calbec       :      0.00s CPU      0.01s WALL (     136 calls)
     fft          :      0.01s CPU      0.01s WALL (      78 calls)
     ffts         :      0.00s CPU      0.00s WALL (       7 calls)
     fftw         :      0.06s CPU      0.06s WALL (    1882 calls)

     Parallel routines

     PWSCF        :      3.01s CPU      3.14s WALL


   This run was terminated on:  10:49:20  25Mar2022            

=------------------------------------------------------------------------------=
   JOB DONE.
=------------------------------------------------------------------------------=
