
     Program PWSCF v.7.0 starts on 22Mar2022 at 11:17: 3 

     This program is part of the open-source Quantum ESPRESSO suite
     for quantum simulation of materials; please cite
         "P. Giannozzi et al., J. Phys.:Condens. Matter 21 395502 (2009);
         "P. Giannozzi et al., J. Phys.:Condens. Matter 29 465901 (2017);
         "P. Giannozzi et al., J. Chem. Phys. 152 154105 (2020);
          URL http://www.quantum-espresso.org", 
     in publications or presentations arising from this work. More details at
     http://www.quantum-espresso.org/quote

     Parallel version (MPI), running on     1 processors

     MPI processes distributed on     1 nodes
     0 MiB available memory on the printing compute node when the environment starts

     Reading input from pw.graphene.nscf.in

     Current dimensions of program PWSCF are:
     Max number of different atomic species (ntypx) = 10
     Max number of k-points (npk) =  40000
     Max angular momentum in pseudopotentials (lmaxx) =  4

     Atomic positions and unit cell read from directory:
     ./temp/gp.save/

     file C.pbe-n-kjpaw_psl.1.0.0.UPF: wavefunction(s)  2S 2P renormalized
     [opt_tetra]  Optimized tetrahedron method is used.

     Subspace diagonalization in iterative solution of the eigenvalue problem:
     a serial algorithm will be used


     G-vector sticks info
     --------------------
     sticks:   dense  smooth     PW     G-vecs:    dense   smooth      PW
     Sum         301     121     37                12531     3147     647

     Using Slab Decomposition



     bravais-lattice index     =            4
     lattice parameter (alat)  =       4.6540  a.u.
     unit-cell volume          =     261.8973 (a.u.)^3
     number of atoms/cell      =            2
     number of atomic types    =            1
     number of electrons       =         8.00
     number of Kohn-Sham states=            8
     kinetic-energy cutoff     =      20.0000  Ry
     charge density cutoff     =     200.0000  Ry
     Exchange-correlation= SLA  PW   PBX  PBC
                           (   1   4   3   4   0   0   0)

     celldm(1)=   4.654000  celldm(2)=   0.000000  celldm(3)=   3.000000
     celldm(4)=   0.000000  celldm(5)=   0.000000  celldm(6)=   0.000000

     crystal axes: (cart. coord. in units of alat)
               a(1) = (   1.000000   0.000000   0.000000 )  
               a(2) = (  -0.500000   0.866025   0.000000 )  
               a(3) = (   0.000000   0.000000   3.000000 )  

     reciprocal axes: (cart. coord. in units 2 pi/alat)
               b(1) = (  1.000000  0.577350 -0.000000 )  
               b(2) = (  0.000000  1.154701  0.000000 )  
               b(3) = (  0.000000 -0.000000  0.333333 )  


     PseudoPot. # 1 for C  read from file:
     /Users/vinhtran/Documents/GitHub/DFT/pseudos/C.pbe-n-kjpaw_psl.1.0.0.UPF
     MD5 check sum: 5d2aebdfa2cae82b50a7e79e9516da0f
     Pseudo is Projector augmented-wave + core cor, Zval =  4.0
     Generated using "atomic" code by A. Dal Corso  v.5.1
     Shape of augmentation charge: PSQ
     Using radial grid of 1073 points,  4 beta functions with: 
                l(1) =   0
                l(2) =   0
                l(3) =   1
                l(4) =   1
     Q(r) pseudized with 0 coefficients 


     atomic species   valence    mass     pseudopotential
        C              4.00    12.01070     C ( 1.00)

     24 Sym. Ops., with inversion, found (12 have fractional translation)



   Cartesian axes

     site n.     atom                  positions (alat units)
         1           C   tau(   1) = (   0.0000000   0.0000000   0.0000000  )
         2           C   tau(   2) = (   0.0000000   0.5773503   0.0000000  )

     number of k points=    19 (tetrahedron method)
                       cart. coord. in units 2pi/alat
        k(    1) = (   0.0000000   0.0000000   0.0000000), wk =   0.0138889
        k(    2) = (   0.0000000   0.0962250   0.0000000), wk =   0.0833333
        k(    3) = (   0.0000000   0.1924501   0.0000000), wk =   0.0833333
        k(    4) = (   0.0000000   0.2886751   0.0000000), wk =   0.0833333
        k(    5) = (   0.0000000   0.3849002   0.0000000), wk =   0.0833333
        k(    6) = (   0.0000000   0.4811252   0.0000000), wk =   0.0833333
        k(    7) = (   0.0000000  -0.5773503   0.0000000), wk =   0.0416667
        k(    8) = (   0.0833333   0.1443376   0.0000000), wk =   0.0833333
        k(    9) = (   0.0833333   0.2405626   0.0000000), wk =   0.1666667
        k(   10) = (   0.0833333   0.3367877   0.0000000), wk =   0.1666667
        k(   11) = (   0.0833333   0.4330127   0.0000000), wk =   0.1666667
        k(   12) = (   0.0833333   0.5292377   0.0000000), wk =   0.1666667
        k(   13) = (   0.1666667   0.2886751   0.0000000), wk =   0.0833333
        k(   14) = (   0.1666667   0.3849002   0.0000000), wk =   0.1666667
        k(   15) = (   0.1666667   0.4811252   0.0000000), wk =   0.1666667
        k(   16) = (   0.1666667   0.5773503   0.0000000), wk =   0.0833333
        k(   17) = (   0.2500000   0.4330127   0.0000000), wk =   0.0833333
        k(   18) = (   0.2500000   0.5292377   0.0000000), wk =   0.1666667
        k(   19) = (   0.3333333   0.5773503   0.0000000), wk =   0.0277778

     Dense  grid:    12531 G-vectors     FFT dimensions: (  24,  24,  64)

     Smooth grid:     3147 G-vectors     FFT dimensions: (  15,  15,  40)

     Estimated max dynamical RAM per process >      13.21 MB

     Check: negative core charge=   -0.000041

     The potential is recalculated from file :
     ./temp/gp.save/charge-density


     negative rho (up, down):  5.331E-06 0.000E+00
     Starting wfcs are    8 randomized atomic wfcs
     Checking if some PAW data can be deallocated... 

     Band Structure Calculation
     Davidson diagonalization with overlap

     ethr =  1.25E-10,  avg # of iterations = 28.5

     total cpu time spent up to now is        1.3 secs

     End of band structure calculation

          k = 0.0000 0.0000 0.0000 (   397 PWs)   bands (ev):

   -18.8976  -6.6610  -1.9942  -1.9942   3.4938   7.0456   9.0683   9.5464

          k = 0.0000 0.0962 0.0000 (   403 PWs)   bands (ev):

   -18.7305  -6.4848  -2.7309  -2.3480   3.7189   7.2537   9.2448   9.5720

          k = 0.0000 0.1925 0.0000 (   402 PWs)   bands (ev):

   -18.2313  -5.8981  -4.3707  -3.1919   4.3936   7.8909   9.3207   9.9874

          k = 0.0000 0.2887 0.0000 (   396 PWs)   bands (ev):

   -17.4067  -6.5186  -4.9385  -4.0921   5.5170   8.3260   9.0041   9.0712

          k = 0.0000 0.3849 0.0000 (   398 PWs)   bands (ev):

   -16.2737  -8.7670  -4.8388  -3.6579   6.0159   7.0834   8.5706  10.4620

          k = 0.0000 0.4811 0.0000 (   392 PWs)   bands (ev):

   -14.8566 -10.9399  -5.2981  -2.1826   3.8365   8.2737   9.1023  12.2805

          k = 0.0000-0.5774 0.0000 (   390 PWs)   bands (ev):

   -13.5982 -12.4444  -5.4505  -1.3169   2.7288   8.1746  11.4739  11.5813

          k = 0.0833 0.1443 0.0000 (   403 PWs)   bands (ev):

   -18.3957  -6.1070  -3.7445  -3.0844   4.1692   7.6765   9.6029   9.9568

          k = 0.0833 0.2406 0.0000 (   405 PWs)   bands (ev):

   -17.7392  -5.5145  -5.3340  -4.0882   5.0676   8.5044   9.3072   9.8218

          k = 0.0833 0.3368 0.0000 (   392 PWs)   bands (ev):

   -16.7599  -7.6104  -4.9655  -4.1962   6.4135   7.1156   9.5190   9.8016

          k = 0.0833 0.4330 0.0000 (   395 PWs)   bands (ev):

   -15.4806  -9.8084  -5.6189  -2.7947   4.8133   8.1993   9.1648  11.4048

          k = 0.0833 0.5292 0.0000 (   392 PWs)   bands (ev):

   -13.9843 -11.7966  -5.9516  -1.4326   3.0019   8.9632  10.4243  13.0244

          k = 0.1667 0.2887 0.0000 (   399 PWs)   bands (ev):

   -16.9207  -6.8699  -5.4922  -4.3819   6.1903   7.5537   9.5388  11.0329

          k = 0.1667 0.3849 0.0000 (   392 PWs)   bands (ev):

   -15.7974  -8.6464  -6.5383  -3.1029   5.5588   7.7558  10.8729  11.2447

          k = 0.1667 0.4811 0.0000 (   394 PWs)   bands (ev):

   -14.4022 -10.6045  -7.1419  -1.6523   3.5721   9.7529  10.9818  12.2307

          k = 0.1667 0.5774 0.0000 (   390 PWs)   bands (ev):

   -13.1659 -12.0424  -7.3274  -0.7339   2.4858  10.8727  12.0835  12.2154

          k = 0.2500 0.4330 0.0000 (   391 PWs)   bands (ev):

   -14.5458  -9.7335  -8.0396  -1.7454   3.9027   9.5319  11.8104  13.3235

          k = 0.2500 0.5292 0.0000 (   392 PWs)   bands (ev):

   -13.1085 -11.1812  -8.7650  -0.3352   2.3490  11.6992  11.9168  13.2561

          k = 0.3333 0.5774 0.0000 (   381 PWs)   bands (ev):

   -11.8601 -11.8601  -9.6066   1.0574   1.0574  11.5315  13.6506  13.6506

     the Fermi energy is     1.0574 ev
     (compare with:     1.0575 eV, computed in scf)

     Writing all to output data dir ./temp/gp.save/

     init_run     :      0.38s CPU      0.39s WALL (       1 calls)
     electrons    :      0.70s CPU      0.77s WALL (       1 calls)

     Called by init_run:
     wfcinit      :      0.00s CPU      0.00s WALL (       1 calls)
     potinit      :      0.16s CPU      0.16s WALL (       1 calls)
     hinit0       :      0.21s CPU      0.21s WALL (       1 calls)

     Called by electrons:
     c_bands      :      0.59s CPU      0.66s WALL (       1 calls)
     v_of_rho     :      0.02s CPU      0.02s WALL (       1 calls)
     newd         :      0.01s CPU      0.01s WALL (       1 calls)
     PAW_pot      :      0.14s CPU      0.14s WALL (       1 calls)

     Called by c_bands:
     init_us_2    :      0.00s CPU      0.00s WALL (      19 calls)
     init_us_2:cp :      0.00s CPU      0.00s WALL (      19 calls)
     cegterg      :      0.55s CPU      0.62s WALL (      38 calls)

     Called by *egterg:
     cdiaghg      :      0.04s CPU      0.04s WALL (     560 calls)
     h_psi        :      0.44s CPU      0.46s WALL (     598 calls)
     s_psi        :      0.01s CPU      0.01s WALL (     598 calls)
     g_psi        :      0.01s CPU      0.01s WALL (     541 calls)

     Called by h_psi:
     h_psi:calbec :      0.01s CPU      0.02s WALL (     598 calls)
     vloc_psi     :      0.42s CPU      0.42s WALL (     598 calls)
     add_vuspsi   :      0.01s CPU      0.01s WALL (     598 calls)

     General routines
     calbec       :      0.01s CPU      0.02s WALL (     598 calls)
     fft          :      0.01s CPU      0.01s WALL (      13 calls)
     ffts         :      0.00s CPU      0.00s WALL (       1 calls)
     fftw         :      0.17s CPU      0.18s WALL (    5492 calls)
     interpolate  :      0.00s CPU      0.00s WALL (       1 calls)
     davcio       :      0.00s CPU      0.00s WALL (      38 calls)

     Parallel routines

     PWSCF        :      1.20s CPU      1.29s WALL


   This run was terminated on:  11:17: 4  22Mar2022            

=------------------------------------------------------------------------------=
   JOB DONE.
=------------------------------------------------------------------------------=
